
     Program PWSCF v.5.0.2 (svn rev. 9392) starts on 19Apr2014 at 14:17:32 

     This program is part of the open-source Quantum ESPRESSO suite
     for quantum simulation of materials; please cite
         "P. Giannozzi et al., J. Phys.:Condens. Matter 21 395502 (2009);
          URL http://www.quantum-espresso.org", 
     in publications or presentations arising from this work. More details at
     http://www.quantum-espresso.org/quote.php

     Serial version

     Current dimensions of program PWSCF are:
     Max number of different atomic species (ntypx) = 10
     Max number of k-points (npk) =  40000
     Max angular momentum in pseudopotentials (lmaxx) =  3
     Waiting for input...
     Reading input from standard input

     G-vector sticks info
     --------------------
     sticks:   dense  smooth     PW     G-vecs:    dense   smooth      PW
     Sum         913     913    349                16131    16131    3725



     bravais-lattice index     =            4
     lattice parameter (alat)  =       6.3764  a.u.
     unit-cell volume          =     166.8192 (a.u.)^3
     number of atoms/cell      =            5
     number of atomic types    =            3
     number of electrons       =        24.00
     number of Kohn-Sham states=           12
     kinetic-energy cutoff     =     100.0000  Ry
     charge density cutoff     =     320.0000  Ry
     convergence threshold     =      1.0E-06
     mixing beta               =       0.3000
     number of iterations used =           16  local-TF  mixing
     Exchange-correlation      = PBE ( 1 4 3 4 0)
     EXX-fraction              =        0.00
     nstep                     =           50


     celldm(1)=   6.376400  celldm(2)=   0.000000  celldm(3)=   0.743000
     celldm(4)=   0.000000  celldm(5)=   0.000000  celldm(6)=   0.000000

     crystal axes: (cart. coord. in units of alat)
               a(1) = (   1.000000   0.000000   0.000000 )  
               a(2) = (  -0.500000   0.866025   0.000000 )  
               a(3) = (   0.000000   0.000000   0.743000 )  

     reciprocal axes: (cart. coord. in units 2 pi/alat)
               b(1) = (  1.000000  0.577350 -0.000000 )  
               b(2) = (  0.000000  1.154701  0.000000 )  
               b(3) = (  0.000000 -0.000000  1.345895 )  


     PseudoPot. # 1 for H  read from file:
     /home/ilia/espresso/pseudo/H.pbe-sp-mt.ncpp
     MD5 check sum: 7a641936b52ccecd26bd1ad87cca5aed
     Pseudo is Norm-conserving, Zval =  1.0
     Generated by old ld1 code (numerical format)
     Using radial grid of 1076 points,  0 beta functions with: 

     PseudoPot. # 2 for O  read from file:
     /home/ilia/espresso/pseudo/O.pbe-sp-mt.ncpp
     MD5 check sum: 8a3d23d410d2f3ebfd0a39faacc72cbb
     Pseudo is Norm-conserving, Zval =  6.0
     Generated by old ld1 code (numerical format)
     Using radial grid of 1130 points,  1 beta functions with: 
                l(1) =   1

     PseudoPot. # 3 for Ca read from file:
     /home/ilia/espresso/pseudo/Ca.pbe-sp-mt_ion2.ncpp
     MD5 check sum: 4bcd670d05521f7b178fdf0a334578ab
     Pseudo is Norm-conserving, Zval = 10.0
     Generated by old ld1 code (numerical format)
     Using radial grid of 1153 points,  1 beta functions with: 
                l(1) =   1

     atomic species   valence    mass     pseudopotential
        H              1.00     1.00700     H ( 1.00)
        O              6.00    16.00000     O ( 1.00)
        Ca            10.00    40.07800     Ca( 1.00)

      6 Sym. Ops. (no inversion) found



   Cartesian axes

     site n.     atom                  positions (alat units)
         1           Ca  tau(   1) = (   0.0000000   0.0000000   0.0000000  )
         2           O   tau(   2) = (   0.0000000   0.5773503   0.2132410  )
         3           O   tau(   3) = (   0.5000000   0.2886751   0.5290160  )
         4           H   tau(   4) = (   0.0000000   0.5773503   0.5007820  )
         5           H   tau(   5) = (   0.5000000   0.2886751   0.2414750  )

     number of k points=    63
                       cart. coord. in units 2pi/alat
        k(    1) = (   0.0833333   0.1443376   0.1121579), wk =   0.0370370
        k(    2) = (   0.0833333   0.1443376   0.3364738), wk =   0.0370370
        k(    3) = (   0.0833333   0.1443376   0.5607896), wk =   0.0370370
        k(    4) = (   0.0833333   0.3367877   0.1121579), wk =   0.0370370
        k(    5) = (   0.0833333   0.3367877   0.3364738), wk =   0.0370370
        k(    6) = (   0.0833333   0.3367877   0.5607896), wk =   0.0370370
        k(    7) = (   0.0833333   0.5292377   0.1121579), wk =   0.0370370
        k(    8) = (   0.0833333   0.5292377   0.3364738), wk =   0.0370370
        k(    9) = (   0.0833333   0.5292377   0.5607896), wk =   0.0370370
        k(   10) = (   0.0833333  -0.4330127   0.1121579), wk =   0.0370370
        k(   11) = (   0.0833333  -0.4330127   0.3364738), wk =   0.0370370
        k(   12) = (   0.0833333  -0.4330127   0.5607896), wk =   0.0370370
        k(   13) = (   0.0833333  -0.2405626   0.1121579), wk =   0.0370370
        k(   14) = (   0.0833333  -0.2405626   0.3364738), wk =   0.0370370
        k(   15) = (   0.0833333  -0.2405626   0.5607896), wk =   0.0370370
        k(   16) = (   0.0833333  -0.0481125   0.1121579), wk =   0.0185185
        k(   17) = (   0.0833333  -0.0481125   0.3364738), wk =   0.0185185
        k(   18) = (   0.0833333  -0.0481125   0.5607896), wk =   0.0185185
        k(   19) = (   0.2500000   0.4330127   0.1121579), wk =   0.0370370
        k(   20) = (   0.2500000   0.4330127   0.3364738), wk =   0.0370370
        k(   21) = (   0.2500000   0.4330127   0.5607896), wk =   0.0370370
        k(   22) = (   0.2500000   0.6254628   0.1121579), wk =   0.0370370
        k(   23) = (   0.2500000   0.6254628   0.3364738), wk =   0.0370370
        k(   24) = (   0.2500000   0.6254628   0.5607896), wk =   0.0370370
        k(   25) = (   0.2500000  -0.3367877   0.1121579), wk =   0.0370370
        k(   26) = (   0.2500000  -0.3367877   0.3364738), wk =   0.0370370
        k(   27) = (   0.2500000  -0.3367877   0.5607896), wk =   0.0370370
        k(   28) = (   0.2500000  -0.1443376   0.1121579), wk =   0.0185185
        k(   29) = (   0.2500000  -0.1443376   0.3364738), wk =   0.0185185
        k(   30) = (   0.2500000  -0.1443376   0.5607896), wk =   0.0185185
        k(   31) = (   0.4166667   0.7216878   0.1121579), wk =   0.0370370
        k(   32) = (   0.4166667   0.7216878   0.3364738), wk =   0.0370370
        k(   33) = (   0.4166667   0.7216878   0.5607896), wk =   0.0370370
        k(   34) = (   0.4166667  -0.2405626   0.1121579), wk =   0.0185185
        k(   35) = (   0.4166667  -0.2405626   0.3364738), wk =   0.0185185
        k(   36) = (   0.4166667  -0.2405626   0.5607896), wk =   0.0185185
        k(   37) = (  -0.0833333  -0.3367877   0.1121579), wk =   0.0370370
        k(   38) = (  -0.0833333  -0.3367877   0.3364738), wk =   0.0370370
        k(   39) = (  -0.0833333  -0.3367877   0.5607896), wk =   0.0370370
        k(   40) = (  -0.0833333  -0.5292377   0.1121579), wk =   0.0370370
        k(   41) = (  -0.0833333  -0.5292377   0.3364738), wk =   0.0370370
        k(   42) = (  -0.0833333  -0.5292377   0.5607896), wk =   0.0370370
        k(   43) = (  -0.0833333   0.4330127   0.1121579), wk =   0.0370370
        k(   44) = (  -0.0833333   0.4330127   0.3364738), wk =   0.0370370
        k(   45) = (  -0.0833333   0.4330127   0.5607896), wk =   0.0370370
        k(   46) = (  -0.0833333   0.2405626   0.1121579), wk =   0.0370370
        k(   47) = (  -0.0833333   0.2405626   0.3364738), wk =   0.0370370
        k(   48) = (  -0.0833333   0.2405626   0.5607896), wk =   0.0370370
        k(   49) = (  -0.0833333   0.0481125   0.1121579), wk =   0.0185185
        k(   50) = (  -0.0833333   0.0481125   0.3364738), wk =   0.0185185
        k(   51) = (  -0.0833333   0.0481125   0.5607896), wk =   0.0185185
        k(   52) = (  -0.2500000  -0.6254628   0.1121579), wk =   0.0370370
        k(   53) = (  -0.2500000  -0.6254628   0.3364738), wk =   0.0370370
        k(   54) = (  -0.2500000  -0.6254628   0.5607896), wk =   0.0370370
        k(   55) = (  -0.2500000   0.3367877   0.1121579), wk =   0.0370370
        k(   56) = (  -0.2500000   0.3367877   0.3364738), wk =   0.0370370
        k(   57) = (  -0.2500000   0.3367877   0.5607896), wk =   0.0370370
        k(   58) = (  -0.2500000   0.1443376   0.1121579), wk =   0.0185185
        k(   59) = (  -0.2500000   0.1443376   0.3364738), wk =   0.0185185
        k(   60) = (  -0.2500000   0.1443376   0.5607896), wk =   0.0185185
        k(   61) = (  -0.4166667   0.2405626   0.1121579), wk =   0.0185185
        k(   62) = (  -0.4166667   0.2405626   0.3364738), wk =   0.0185185
        k(   63) = (  -0.4166667   0.2405626   0.5607896), wk =   0.0185185

     Dense  grid:    16131 G-vectors     FFT dimensions: (  40,  40,  27)

     Largest allocated arrays     est. size (Mb)     dimensions
        Kohn-Sham Wavefunctions         0.52 Mb     (   2834,   12)
        NL pseudopotentials             0.39 Mb     (   2834,    9)
        Each V/rho on FFT grid          0.66 Mb     (  43200)
        Each G-vector array             0.12 Mb     (  16131)
        G-vector shells                 0.12 Mb     (  16131)
     Largest temporary arrays     est. size (Mb)     dimensions
        Auxiliary wavefunctions         2.08 Mb     (   2834,   48)
        Each subspace H/S matrix        0.04 Mb     (  48,  48)
        Each <psi_i|beta_j> matrix      0.00 Mb     (      9,   12)
        Arrays for rho mixing          10.55 Mb     (  43200,  16)

     Initial potential from superposition of free atoms

     starting charge   21.99998, renormalised to   24.00000
     Starting wfc are   14 randomized atomic wfcs

     total cpu time spent up to now is       25.7 secs

     per-process dynamical memory:    10.3 Mb

     Self-consistent Calculation

     iteration #  1     ecut=   100.00 Ry     beta=0.30
     Davidson diagonalization with overlap
     ethr =  1.00E-02,  avg # of iterations =  2.0

     total cpu time spent up to now is       34.7 secs

     total energy              =    -139.59409855 Ry
     Harris-Foulkes estimate   =    -139.68131477 Ry
     estimated scf accuracy    <       0.48878317 Ry

     iteration #  2     ecut=   100.00 Ry     beta=0.30
     Davidson diagonalization with overlap
     ethr =  2.04E-03,  avg # of iterations =  1.0

     total cpu time spent up to now is       41.0 secs

     total energy              =    -139.40018384 Ry
     Harris-Foulkes estimate   =    -139.60022978 Ry
     estimated scf accuracy    <       0.30844683 Ry

     iteration #  3     ecut=   100.00 Ry     beta=0.30
     Davidson diagonalization with overlap
     ethr =  1.29E-03,  avg # of iterations =  2.0

     total cpu time spent up to now is       50.1 secs

     total energy              =    -139.45895794 Ry
     Harris-Foulkes estimate   =    -139.46277718 Ry
     estimated scf accuracy    <       0.02178501 Ry

     iteration #  4     ecut=   100.00 Ry     beta=0.30
     Davidson diagonalization with overlap
     ethr =  9.08E-05,  avg # of iterations =  1.0

     total cpu time spent up to now is       56.4 secs

     total energy              =    -139.45470474 Ry
     Harris-Foulkes estimate   =    -139.45973060 Ry
     estimated scf accuracy    <       0.00981686 Ry

     iteration #  5     ecut=   100.00 Ry     beta=0.30
     Davidson diagonalization with overlap
     ethr =  4.09E-05,  avg # of iterations =  2.0

     total cpu time spent up to now is       65.3 secs

     total energy              =    -139.45636779 Ry
     Harris-Foulkes estimate   =    -139.45684761 Ry
     estimated scf accuracy    <       0.00287907 Ry

     iteration #  6     ecut=   100.00 Ry     beta=0.30
     Davidson diagonalization with overlap
     ethr =  1.20E-05,  avg # of iterations =  1.0

     total cpu time spent up to now is       71.7 secs

     total energy              =    -139.45547163 Ry
     Harris-Foulkes estimate   =    -139.45640896 Ry
     estimated scf accuracy    <       0.00169659 Ry

     iteration #  7     ecut=   100.00 Ry     beta=0.30
     Davidson diagonalization with overlap
     ethr =  7.07E-06,  avg # of iterations =  2.0

     total cpu time spent up to now is       80.7 secs

     total energy              =    -139.45593071 Ry
     Harris-Foulkes estimate   =    -139.45593978 Ry
     estimated scf accuracy    <       0.00006090 Ry

     iteration #  8     ecut=   100.00 Ry     beta=0.30
     Davidson diagonalization with overlap
     ethr =  2.54E-07,  avg # of iterations =  1.8

     total cpu time spent up to now is       87.5 secs

     total energy              =    -139.45592284 Ry
     Harris-Foulkes estimate   =    -139.45593319 Ry
     estimated scf accuracy    <       0.00003854 Ry

     iteration #  9     ecut=   100.00 Ry     beta=0.30
     Davidson diagonalization with overlap
     ethr =  1.61E-07,  avg # of iterations =  1.9

     total cpu time spent up to now is       95.8 secs

     total energy              =    -139.45592078 Ry
     Harris-Foulkes estimate   =    -139.45592512 Ry
     estimated scf accuracy    <       0.00000984 Ry

     iteration # 10     ecut=   100.00 Ry     beta=0.30
     Davidson diagonalization with overlap
     ethr =  4.10E-08,  avg # of iterations =  2.0

     total cpu time spent up to now is      106.2 secs

     End of self-consistent calculation

          k = 0.0833 0.1443 0.1122 (  2820 PWs)   bands (ev):

   -23.7877  -7.2781  -5.1028  -4.5446  -3.9221  -2.2757   9.5748   9.7542
    10.3258  11.9509  14.5439  15.1495

          k = 0.0833 0.1443 0.3365 (  2812 PWs)   bands (ev):

   -23.4868  -7.2294  -5.3722  -4.8500  -3.5127  -1.8854   6.8224   9.5968
    10.2173  11.0752  13.7408  14.9132

          k = 0.0833 0.1443 0.5608 (  2794 PWs)   bands (ev):

   -23.1593  -7.9525  -5.0698  -4.5991  -3.0865  -1.5008   4.7363   7.3672
    11.1800  12.2021  12.6911  13.9989

          k = 0.0833 0.3368 0.1122 (  2825 PWs)   bands (ev):

   -23.6995  -8.0610  -5.4879  -4.3783  -3.3205  -2.2861   9.7281  10.3317
    11.3430  11.8891  13.8996  15.2111

          k = 0.0833 0.3368 0.3365 (  2820 PWs)   bands (ev):

   -23.4104  -7.4142  -5.8219  -5.0595  -3.2003  -1.8457   6.9489   8.8821
    10.3155  12.2411  14.1792  15.1472

          k = 0.0833 0.3368 0.5608 (  2810 PWs)   bands (ev):

   -23.0970  -7.4377  -5.9332  -4.7618  -3.3715  -1.3742   5.0131   6.6179
    10.7863  12.4591  14.1716  14.5932

          k = 0.0833 0.5292 0.1122 (  2821 PWs)   bands (ev):

   -23.6335  -8.4680  -5.7793  -4.2058  -3.6602  -1.6031   9.9715  10.7332
    11.0360  12.1026  14.2992  15.1079

          k = 0.0833 0.5292 0.3365 (  2819 PWs)   bands (ev):

   -23.3534  -7.6737  -5.7421  -5.2331  -3.3811  -1.7454   7.5500   8.3582
    10.6272  12.4011  14.5576  14.9970

          k = 0.0833 0.5292 0.5608 (  2816 PWs)   bands (ev):

   -23.0506  -6.9158  -6.4350  -4.9134  -3.6366  -1.6672   5.4494   6.3736
    10.7168  13.0949  14.4397  14.5900

          k = 0.0833-0.4330 0.1122 (  2826 PWs)   bands (ev):

   -23.6578  -8.3475  -5.6462  -4.1066  -3.6247  -1.9899  10.3056  10.5289
    11.3886  11.9283  13.8738  14.7960

          k = 0.0833-0.4330 0.3365 (  2823 PWs)   bands (ev):

   -23.3744  -7.6624  -5.5225  -5.2528  -3.0798  -2.2383   7.7456   8.4643
    10.9453  12.3853  13.9345  14.4259

          k = 0.0833-0.4330 0.5608 (  2806 PWs)   bands (ev):

   -23.0676  -7.2291  -6.1135  -4.8586  -3.3989  -1.8141   5.6364   6.2525
    11.0483  12.7493  14.0598  14.3938

          k = 0.0833-0.2406 0.1122 (  2825 PWs)   bands (ev):

   -23.7471  -7.7115  -5.2633  -4.3204  -3.5258  -2.5522   9.7983  10.1631
    10.9135  11.7949  14.1365  14.9256

          k = 0.0833-0.2406 0.3365 (  2814 PWs)   bands (ev):

   -23.4516  -7.3557  -5.5294  -4.9636  -3.0574  -2.2599   7.0272   9.2797
    10.5982  11.5232  13.5903  14.8300

          k = 0.0833-0.2406 0.5608 (  2803 PWs)   bands (ev):

   -23.1305  -7.7512  -5.4738  -4.6745  -3.0813  -1.5800   4.9530   6.9504
    11.4470  11.8655  13.1491  14.4103

          k = 0.0833-0.0481 0.1122 (  2815 PWs)   bands (ev):

   -23.8109  -6.9319  -5.0229  -4.8030  -4.1369  -2.0610   9.4048   9.5398
     9.9873  12.0508  14.8183  15.2505

          k = 0.0833-0.0481 0.3365 (  2817 PWs)   bands (ev):

   -23.5071  -7.1829  -5.1144  -4.7964  -3.8843  -1.6952   6.7681   9.8341
    10.0353  10.6846  13.9615  14.7587

          k = 0.0833-0.0481 0.5608 (  2790 PWs)   bands (ev):

   -23.1759  -8.0630  -4.7618  -4.5610  -3.1374  -1.5198   4.6760   7.6511
    11.1741  12.0988  12.6686  13.5729

          k = 0.2500 0.4330 0.1122 (  2812 PWs)   bands (ev):

   -23.6338  -8.1594  -6.6573  -4.0873  -2.5799  -2.1543   9.4705  10.6502
    11.0457  12.9562  13.6119  15.5169

          k = 0.2500 0.4330 0.3365 (  2817 PWs)   bands (ev):

   -23.3536  -7.4332  -6.1113  -5.4755  -2.6324  -2.0984   7.6132   8.3438
    10.4541  12.8505  14.0728  14.9794

          k = 0.2500 0.4330 0.5608 (  2818 PWs)   bands (ev):

   -23.0507  -6.9759  -6.1531  -5.3558  -3.1651  -2.0131   5.7960   6.1640
    11.4023  12.6182  14.0526  14.4559

          k = 0.2500 0.6255 0.1122 (  2823 PWs)   bands (ev):

   -23.6160  -8.0568  -7.0705  -4.0566  -2.4926  -1.9425   9.3063  10.6580
    10.9193  13.2142  13.7030  15.7152

          k = 0.2500 0.6255 0.3365 (  2819 PWs)   bands (ev):

   -23.3382  -7.3213  -6.4342  -5.4670  -2.5049  -2.1058   7.9362   8.1006
    10.2787  13.1888  13.8780  15.1139

          k = 0.2500 0.6255 0.5608 (  2828 PWs)   bands (ev):

   -23.0383  -6.8035  -6.1582  -5.6108  -3.0229  -2.2854   5.9957   6.1138
    11.4516  13.0604  13.8911  14.1719

          k = 0.2500-0.3368 0.1122 (  2818 PWs)   bands (ev):

   -23.6644  -8.1744  -6.0753  -4.1757  -2.9407  -2.2529   9.6190  10.6237
    11.1847  12.3994  13.7061  15.3068

          k = 0.2500-0.3368 0.3365 (  2819 PWs)   bands (ev):

   -23.3801  -7.4694  -5.8551  -5.3514  -2.9274  -1.9681   7.2413   8.6180
    10.5001  12.4600  14.2839  14.9428

          k = 0.2500-0.3368 0.5608 (  2814 PWs)   bands (ev):

   -23.0723  -7.2061  -6.0916  -5.0277  -3.3056  -1.6536   5.3777   6.3774
    11.1082  12.4295  14.1883  14.6475

          k = 0.2500-0.1443 0.1122 (  2834 PWs)   bands (ev):

   -23.7297  -7.8621  -5.1572  -4.5761  -3.4603  -2.3621   9.8045   9.9326
    11.4610  11.5598  14.0280  15.2481

          k = 0.2500-0.1443 0.3365 (  2819 PWs)   bands (ev):

   -23.4366  -7.3284  -5.7895  -4.9079  -3.3019  -1.8234   6.8078   9.1047
    10.1455  12.0627  13.9712  15.2400

          k = 0.2500-0.1443 0.5608 (  2804 PWs)   bands (ev):

   -23.1183  -7.6249  -5.7078  -4.6495  -3.3240  -1.2831   4.8248   6.8337
    10.7065  12.4548  13.9429  14.3899

          k = 0.4167 0.7217 0.1122 (  2824 PWs)   bands (ev):

   -23.6224  -8.3147  -6.4980  -4.0741  -3.0765  -1.7106   9.6167  10.6589
    11.0016  12.6892  13.9795  15.4610

          k = 0.4167 0.7217 0.3365 (  2827 PWs)   bands (ev):

   -23.3438  -7.5456  -6.0066  -5.4448  -2.9193  -1.9133   7.8236   8.1725
    10.4986  12.7620  14.1726  15.0556

          k = 0.4167 0.7217 0.5608 (  2818 PWs)   bands (ev):

   -23.0428  -6.8562  -6.3191  -5.2741  -3.3363  -1.9779   5.7293   6.2648
    11.1137  13.0868  14.1685  14.3226

          k = 0.4167-0.2406 0.1122 (  2824 PWs)   bands (ev):

   -23.6465  -8.4612  -5.2884  -4.5305  -3.7813  -1.6424  10.1086  10.6456
    11.0371  11.9146  14.4971  14.8874

          k = 0.4167-0.2406 0.3365 (  2817 PWs)   bands (ev):

   -23.3646  -7.6639  -5.7562  -5.0210  -3.5730  -1.6618   7.3114   8.4981
    10.5495  12.3079  14.7752  15.0016

          k = 0.4167-0.2406 0.5608 (  2810 PWs)   bands (ev):

   -23.0597  -7.0043  -6.4214  -4.7387  -3.7318  -1.4864   5.2664   6.4305
    10.5508  12.9985  14.5903  14.7105

          k =-0.0833-0.3368 0.1122 (  2825 PWs)   bands (ev):

   -23.6995  -8.0858  -5.4602  -4.1894  -3.4164  -2.4399  10.0602  10.4732
    11.5597  11.6183  13.7854  14.7824

          k =-0.0833-0.3368 0.3365 (  2820 PWs)   bands (ev):

   -23.4104  -7.5252  -5.5470  -5.1127  -2.7028  -2.6184   7.3642   8.8902
    10.9118  11.9966  13.6736  14.5437

          k =-0.0833-0.3368 0.5608 (  2810 PWs)   bands (ev):

   -23.0970  -7.4934  -5.8384  -4.7678  -3.1937  -1.7212   5.3146   6.5320
    11.3466  12.1222  13.6413  14.5340

          k =-0.0833-0.5292 0.1122 (  2821 PWs)   bands (ev):

   -23.6335  -8.4766  -5.7665  -4.1102  -3.7326  -1.6581  10.2053  10.6265
    11.1879  12.0377  14.1690  14.9687

          k =-0.0833-0.5292 0.3365 (  2819 PWs)   bands (ev):

   -23.3534  -7.7160  -5.6011  -5.2824  -3.3140  -1.9340   7.9321   8.1676
    10.8012  12.4587  14.2421  14.7199

          k =-0.0833-0.5292 0.5608 (  2816 PWs)   bands (ev):

   -23.0506  -7.0095  -6.3166  -4.9176  -3.5832  -1.7937   5.6163   6.2928
    10.8316  13.1897  14.2181  14.4252

          k =-0.0833 0.4330 0.1122 (  2826 PWs)   bands (ev):

   -23.6579  -8.3258  -5.6760  -4.3022  -3.4966  -1.8514   9.8292  10.6191
    11.0745  12.1327  14.1316  15.1628

          k =-0.0833 0.4330 0.3365 (  2823 PWs)   bands (ev):

   -23.3744  -7.5568  -5.8364  -5.1589  -3.3158  -1.7180   7.1854   8.5811
    10.4637  12.3653  14.5818  15.1025

          k =-0.0833 0.4330 0.5608 (  2806 PWs)   bands (ev):

   -23.0676  -7.1152  -6.2775  -4.8511  -3.5464  -1.4939   5.2499   6.4289
    10.7044  12.7801  14.4625  14.7073

          k =-0.0833 0.2406 0.1122 (  2825 PWs)   bands (ev):

   -23.7471  -7.6956  -5.2749  -4.4448  -3.4427  -2.4880   9.6399  10.0134
    11.1601  11.6941  14.0724  15.2132

          k =-0.0833 0.2406 0.3365 (  2814 PWs)   bands (ev):

   -23.4516  -7.2990  -5.6605  -4.9467  -3.2115  -1.9683   6.8492   9.2548
    10.2143  11.8119  13.7773  15.0856

          k =-0.0833 0.2406 0.5608 (  2803 PWs)   bands (ev):

   -23.1305  -7.7353  -5.5050  -4.6709  -3.1889  -1.3904   4.8277   6.9650
    10.9510  12.2425  13.5104  14.3324

          k =-0.0833 0.0481 0.1122 (  2815 PWs)   bands (ev):

   -23.8109  -6.9381  -5.0255  -4.7591  -4.1692  -2.0685   9.5196   9.5252
     9.8948  12.0633  14.9604  15.0771

          k =-0.0833 0.0481 0.3365 (  2817 PWs)   bands (ev):

   -23.5071  -7.1917  -5.0838  -4.8021  -3.8831  -1.7260   6.7962   9.7966
    10.3397  10.4279  13.9444  14.7177

          k =-0.0833 0.0481 0.5608 (  2790 PWs)   bands (ev):

   -23.1759  -8.0645  -4.7574  -4.5641  -3.1129  -1.5559   4.6938   7.6520
    11.3536  11.9425  12.5467  13.6473

          k =-0.2500-0.6255 0.1122 (  2823 PWs)   bands (ev):

   -23.6160  -8.0534  -7.0748  -4.0597  -2.5068  -1.9196   9.2785  10.7079
    10.8704  13.1765  13.7532  15.7389

          k =-0.2500-0.6255 0.3365 (  2819 PWs)   bands (ev):

   -23.3382  -7.3040  -6.4621  -5.4616  -2.5608  -2.0333   7.8235   8.1817
    10.2654  13.1199  13.9732  15.1584

          k =-0.2500-0.6255 0.5608 (  2828 PWs)   bands (ev):

   -23.0383  -6.7821  -6.1953  -5.5982  -3.0460  -2.2519   5.9224   6.1748
    11.4177  13.0487  13.9927  14.1415

          k =-0.2500 0.3368 0.1122 (  2818 PWs)   bands (ev):

   -23.6644  -8.1861  -6.0571  -4.1322  -2.9047  -2.3663   9.7835  10.5770
    11.3219  12.3914  13.5584  15.1504

          k =-0.2500 0.3368 0.3365 (  2819 PWs)   bands (ev):

   -23.3800  -7.5248  -5.6533  -5.4550  -2.6771  -2.3359   7.4680   8.5851
    10.6932  12.4876  14.0117  14.6395

          k =-0.2500 0.3368 0.5608 (  2814 PWs)   bands (ev):

   -23.0723  -7.2481  -6.0222  -5.0368  -3.2260  -1.8079   5.5473   6.2991
    11.3767  12.2582  14.0400  14.5276

          k =-0.2500 0.1443 0.1122 (  2834 PWs)   bands (ev):

   -23.7297  -7.8928  -5.1621  -4.2510  -3.6689  -2.5050  10.2055  10.2242
    10.9495  11.7753  14.1469  14.5957

          k =-0.2500 0.1443 0.3365 (  2819 PWs)   bands (ev):

   -23.4365  -7.4525  -5.5228  -4.9186  -2.8972  -2.5410   7.2256   9.1518
    11.0469  11.4362  13.4905  14.6375

          k =-0.2500 0.1443 0.5608 (  2804 PWs)   bands (ev):

   -23.1183  -7.6681  -5.6298  -4.6554  -3.1019  -1.6913   5.1241   6.7818
    11.4615  11.9985  13.1457  14.5034

          k =-0.4167 0.2406 0.1122 (  2824 PWs)   bands (ev):

   -23.6465  -8.4787  -5.2907  -4.2001  -4.0395  -1.7532  10.4938  10.8424
    11.2717  11.5383  14.3216  14.5045

          k =-0.4167 0.2406 0.3365 (  2817 PWs)   bands (ev):

   -23.3646  -7.7497  -5.5401  -5.0261  -3.4607  -2.0552   7.9325   8.2874
    11.0006  12.3256  14.1236  14.4132

          k =-0.4167 0.2406 0.5608 (  2810 PWs)   bands (ev):

   -23.0597  -7.1470  -6.2353  -4.7415  -3.6174  -1.7603   5.6164   6.2733
    10.7896  13.1513  14.2343  14.2913

!    total energy              =    -139.45592305 Ry
     Harris-Foulkes estimate   =    -139.45592336 Ry
     estimated scf accuracy    <       0.00000060 Ry

     The total energy is the sum of the following terms:

     one-electron contribution =      -0.91007595 Ry
     hartree contribution      =      19.61011364 Ry
     xc contribution           =     -27.03793759 Ry
     ewald contribution        =    -131.11802315 Ry

     convergence has been achieved in  10 iterations

     Forces acting on atoms (Ry/au):

     atom    1 type  3   force =     0.00000000    0.00000000   -0.00009174
     atom    2 type  2   force =     0.00000000    0.00000000    0.02177103
     atom    3 type  2   force =     0.00000000   -0.00000000   -0.02176956
     atom    4 type  1   force =     0.00000000    0.00000000   -0.01389403
     atom    5 type  1   force =     0.00000000   -0.00000000    0.01398431

     Total force =     0.036558     Total SCF correction =     0.000129


     entering subroutine stress ...

          total   stress  (Ry/bohr**3)                   (kbar)     P= 1764.71
   0.01299244   0.00000000   0.00000000       1911.25      0.00      0.00
   0.00000000   0.01299244  -0.00000000          0.00   1911.25     -0.00
   0.00000000   0.00000000   0.01000398          0.00      0.00   1471.64


     BFGS Geometry Optimization

     number of scf cycles    =   1
     number of bfgs steps    =   0

     enthalpy new            =    -137.7549016784 Ry

     new trust radius        =       0.1805406738 bohr
     new conv_thr            =       0.0000010000 Ry

     new unit-cell volume =    190.03200 a.u.^3 (    28.15984 Ang^3 )

CELL_PARAMETERS (alat=  6.37640000)
   1.069891123   0.000000000   0.000000000
  -0.534945561   0.926552891   0.000000000
   0.000000000  -0.000000000   0.739418454

ATOMIC_POSITIONS (crystal)
Ca       0.000000000   0.000000000  -0.000019364
O        0.333333333   0.666666667   0.291595307
O        0.666666667   0.333333333   0.707405002
H        0.333333333   0.666666667   0.671067326
H        0.666666667   0.333333333   0.327951730



     Writing output data file CaOH2_ambient.save
     NEW-OLD atomic charge density approx. for the potential
     NEW k-points:
        k(    1) = (   0.0778895   0.1349087   0.1127012), wk =   0.0370370
        k(    2) = (   0.0778895   0.1349087   0.3381035), wk =   0.0370370
        k(    3) = (   0.0778895   0.1349087   0.5635059), wk =   0.0370370
        k(    4) = (   0.0778895   0.3147869   0.1127012), wk =   0.0370370
        k(    5) = (   0.0778895   0.3147869   0.3381035), wk =   0.0370370
        k(    6) = (   0.0778895   0.3147869   0.5635059), wk =   0.0370370
        k(    7) = (   0.0778895   0.4946651   0.1127012), wk =   0.0370370
        k(    8) = (   0.0778895   0.4946651   0.3381035), wk =   0.0370370
        k(    9) = (   0.0778895   0.4946651   0.5635059), wk =   0.0370370
        k(   10) = (   0.0778895  -0.4047260   0.1127012), wk =   0.0370370
        k(   11) = (   0.0778895  -0.4047260   0.3381035), wk =   0.0370370
        k(   12) = (   0.0778895  -0.4047260   0.5635059), wk =   0.0370370
        k(   13) = (   0.0778895  -0.2248478   0.1127012), wk =   0.0370370
        k(   14) = (   0.0778895  -0.2248478   0.3381035), wk =   0.0370370
        k(   15) = (   0.0778895  -0.2248478   0.5635059), wk =   0.0370370
        k(   16) = (   0.0778895  -0.0449696   0.1127012), wk =   0.0185185
        k(   17) = (   0.0778895  -0.0449696   0.3381035), wk =   0.0185185
        k(   18) = (   0.0778895  -0.0449696   0.5635059), wk =   0.0185185
        k(   19) = (   0.2336686   0.4047260   0.1127012), wk =   0.0370370
        k(   20) = (   0.2336686   0.4047260   0.3381035), wk =   0.0370370
        k(   21) = (   0.2336686   0.4047260   0.5635059), wk =   0.0370370
        k(   22) = (   0.2336686   0.5846042   0.1127012), wk =   0.0370370
        k(   23) = (   0.2336686   0.5846042   0.3381035), wk =   0.0370370
        k(   24) = (   0.2336686   0.5846042   0.5635059), wk =   0.0370370
        k(   25) = (   0.2336686  -0.3147869   0.1127012), wk =   0.0370370
        k(   26) = (   0.2336686  -0.3147869   0.3381035), wk =   0.0370370
        k(   27) = (   0.2336686  -0.3147869   0.5635059), wk =   0.0370370
        k(   28) = (   0.2336686  -0.1349087   0.1127012), wk =   0.0185185
        k(   29) = (   0.2336686  -0.1349087   0.3381035), wk =   0.0185185
        k(   30) = (   0.2336686  -0.1349087   0.5635059), wk =   0.0185185
        k(   31) = (   0.3894477   0.6745433   0.1127012), wk =   0.0370370
        k(   32) = (   0.3894477   0.6745433   0.3381035), wk =   0.0370370
        k(   33) = (   0.3894477   0.6745433   0.5635059), wk =   0.0370370
        k(   34) = (   0.3894477  -0.2248478   0.1127012), wk =   0.0185185
        k(   35) = (   0.3894477  -0.2248478   0.3381035), wk =   0.0185185
        k(   36) = (   0.3894477  -0.2248478   0.5635059), wk =   0.0185185
        k(   37) = (  -0.0778895  -0.3147869   0.1127012), wk =   0.0370370
        k(   38) = (  -0.0778895  -0.3147869   0.3381035), wk =   0.0370370
        k(   39) = (  -0.0778895  -0.3147869   0.5635059), wk =   0.0370370
        k(   40) = (  -0.0778895  -0.4946651   0.1127012), wk =   0.0370370
        k(   41) = (  -0.0778895  -0.4946651   0.3381035), wk =   0.0370370
        k(   42) = (  -0.0778895  -0.4946651   0.5635059), wk =   0.0370370
        k(   43) = (  -0.0778895   0.4047260   0.1127012), wk =   0.0370370
        k(   44) = (  -0.0778895   0.4047260   0.3381035), wk =   0.0370370
        k(   45) = (  -0.0778895   0.4047260   0.5635059), wk =   0.0370370
        k(   46) = (  -0.0778895   0.2248478   0.1127012), wk =   0.0370370
        k(   47) = (  -0.0778895   0.2248478   0.3381035), wk =   0.0370370
        k(   48) = (  -0.0778895   0.2248478   0.5635059), wk =   0.0370370
        k(   49) = (  -0.0778895   0.0449696   0.1127012), wk =   0.0185185
        k(   50) = (  -0.0778895   0.0449696   0.3381035), wk =   0.0185185
        k(   51) = (  -0.0778895   0.0449696   0.5635059), wk =   0.0185185
        k(   52) = (  -0.2336686  -0.5846042   0.1127012), wk =   0.0370370
        k(   53) = (  -0.2336686  -0.5846042   0.3381035), wk =   0.0370370
        k(   54) = (  -0.2336686  -0.5846042   0.5635059), wk =   0.0370370
        k(   55) = (  -0.2336686   0.3147869   0.1127012), wk =   0.0370370
        k(   56) = (  -0.2336686   0.3147869   0.3381035), wk =   0.0370370
        k(   57) = (  -0.2336686   0.3147869   0.5635059), wk =   0.0370370
        k(   58) = (  -0.2336686   0.1349087   0.1127012), wk =   0.0185185
        k(   59) = (  -0.2336686   0.1349087   0.3381035), wk =   0.0185185
        k(   60) = (  -0.2336686   0.1349087   0.5635059), wk =   0.0185185
        k(   61) = (  -0.3894477   0.2248478   0.1127012), wk =   0.0185185
        k(   62) = (  -0.3894477   0.2248478   0.3381035), wk =   0.0185185
        k(   63) = (  -0.3894477   0.2248478   0.5635059), wk =   0.0185185
     extrapolated charge   26.68734, renormalised to   24.00000

     total cpu time spent up to now is      170.5 secs

     per-process dynamical memory:    13.0 Mb

     Self-consistent Calculation

     iteration #  1     ecut=   100.00 Ry     beta=0.30
     Davidson diagonalization with overlap
     ethr =  1.00E-06,  avg # of iterations =  6.1

     total cpu time spent up to now is      190.5 secs

     total energy              =    -139.31866616 Ry
     Harris-Foulkes estimate   =    -138.78421456 Ry
     estimated scf accuracy    <       0.36377030 Ry

     iteration #  2     ecut=   100.00 Ry     beta=0.30
     Davidson diagonalization with overlap
     ethr =  1.52E-03,  avg # of iterations =  3.0

     total cpu time spent up to now is      202.8 secs

     total energy              =    -139.68378473 Ry
     Harris-Foulkes estimate   =    -139.69634626 Ry
     estimated scf accuracy    <       0.07775773 Ry

     iteration #  3     ecut=   100.00 Ry     beta=0.30
     Davidson diagonalization with overlap
     ethr =  3.24E-04,  avg # of iterations =  1.0

     total cpu time spent up to now is      209.9 secs

     total energy              =    -139.66140450 Ry
     Harris-Foulkes estimate   =    -139.68491746 Ry
     estimated scf accuracy    <       0.04489578 Ry

     iteration #  4     ecut=   100.00 Ry     beta=0.30
     Davidson diagonalization with overlap
     ethr =  1.87E-04,  avg # of iterations =  2.0

     total cpu time spent up to now is      219.2 secs

     total energy              =    -139.67104629 Ry
     Harris-Foulkes estimate   =    -139.67116584 Ry
     estimated scf accuracy    <       0.00078090 Ry

     iteration #  5     ecut=   100.00 Ry     beta=0.30
     Davidson diagonalization with overlap
     ethr =  3.25E-06,  avg # of iterations =  2.0

     total cpu time spent up to now is      227.0 secs

     total energy              =    -139.67093687 Ry
     Harris-Foulkes estimate   =    -139.67110389 Ry
     estimated scf accuracy    <       0.00044074 Ry

     iteration #  6     ecut=   100.00 Ry     beta=0.30
     Davidson diagonalization with overlap
     ethr =  1.84E-06,  avg # of iterations =  2.0

     total cpu time spent up to now is      234.8 secs

     total energy              =    -139.67095325 Ry
     Harris-Foulkes estimate   =    -139.67097119 Ry
     estimated scf accuracy    <       0.00005481 Ry

     iteration #  7     ecut=   100.00 Ry     beta=0.30
     Davidson diagonalization with overlap
     ethr =  2.28E-07,  avg # of iterations =  2.0

     total cpu time spent up to now is      243.0 secs

     total energy              =    -139.67095248 Ry
     Harris-Foulkes estimate   =    -139.67095791 Ry
     estimated scf accuracy    <       0.00001180 Ry

     iteration #  8     ecut=   100.00 Ry     beta=0.30
     Davidson diagonalization with overlap
     ethr =  4.92E-08,  avg # of iterations =  2.0

     total cpu time spent up to now is      252.4 secs

     End of self-consistent calculation

          k = 0.0779 0.1349 0.1127 (  2820 PWs)   bands (ev):

   -26.6348  -9.0017  -7.8768  -7.2565  -6.7412  -5.0021   7.8813   8.1214
     8.5497   9.8745  12.0104  12.5199

          k = 0.0779 0.1349 0.3381 (  2812 PWs)   bands (ev):

   -26.3468  -9.0881  -7.9980  -7.6511  -6.3079  -4.5233   5.2408   7.5108
     8.5269   9.1279  11.5812  12.3954

          k = 0.0779 0.1349 0.5635 (  2794 PWs)   bands (ev):

   -26.0347 -10.1171  -7.6170  -7.4168  -5.6516  -4.0305   2.9497   5.3248
     9.4916  10.2092  10.8560  11.7898

          k = 0.0779 0.3148 0.1127 (  2825 PWs)   bands (ev):

   -26.6006  -9.6252  -8.0401  -7.0968  -6.0706  -5.2319   7.9836   8.5050
     9.4969   9.5328  11.4579  12.6642

          k = 0.0779 0.3148 0.3381 (  2820 PWs)   bands (ev):

   -26.3175  -9.1135  -8.4031  -7.7581  -5.8376  -4.6971   5.4218   6.9946
     8.5166   9.8858  11.7763  12.6560

          k = 0.0779 0.3148 0.5635 (  2810 PWs)   bands (ev):

   -26.0115  -9.8784  -8.0485  -7.4884  -5.6630  -4.0938   3.2711   4.7243
     9.1397  10.3031  11.8607  12.2035

          k = 0.0779 0.4947 0.1127 (  2821 PWs)   bands (ev):

   -26.5752  -9.9178  -8.1722  -7.0197  -6.1292  -4.9038   8.0399   8.8167
     9.2693   9.6703  11.7805  12.6697

          k = 0.0779 0.4947 0.3381 (  2819 PWs)   bands (ev):

   -26.2959  -9.2415  -8.4421  -7.8501  -5.7113  -4.7579   5.8840   6.5314
     8.6620  10.0153  12.0211  12.5916

          k = 0.0779 0.4947 0.5635 (  2816 PWs)   bands (ev):

   -25.9943  -9.6833  -8.3187  -7.5448  -5.6075  -4.3397   3.7813   4.2461
     9.0602  10.7359  11.9723  12.2126

          k = 0.0779-0.4047 0.1127 (  2826 PWs)   bands (ev):

   -26.5845  -9.8320  -8.1171  -7.0071  -6.0223  -5.1614   8.2028   8.7880
     9.3613   9.6406  11.4721  12.4586

          k = 0.0779-0.4047 0.3381 (  2823 PWs)   bands (ev):

   -26.3039  -9.2588  -8.3495  -7.8240  -5.3646  -5.1902   5.9091   6.6622
     8.8684  10.0409  11.6599  12.1384

          k = 0.0779-0.4047 0.5635 (  2806 PWs)   bands (ev):

   -26.0005  -9.7686  -8.2162  -7.5241  -5.4870  -4.4210   3.7230   4.3548
     9.3190  10.5311  11.8332  11.9106

          k = 0.0779-0.2248 0.1127 (  2825 PWs)   bands (ev):

   -26.6190  -9.3563  -7.9475  -7.1044  -6.3519  -5.2294   8.0303   8.4445
     8.8566   9.7828  11.6610  12.4204

          k = 0.0779-0.2248 0.3381 (  2814 PWs)   bands (ev):

   -26.3332  -9.1266  -8.1884  -7.7027  -5.9279  -4.7691   5.3947   7.2658
     8.7468   9.4319  11.5203  12.2943

          k = 0.0779-0.2248 0.5635 (  2803 PWs)   bands (ev):

   -26.0240 -10.0146  -7.8296  -7.4500  -5.5788  -4.1347   3.1332   5.0198
     9.6254   9.9831  11.1601  12.0345

          k = 0.0779-0.0450 0.1127 (  2815 PWs)   bands (ev):

   -26.6440  -8.6767  -7.8428  -7.5182  -6.9098  -4.8566   7.7708   7.9152
     8.3969   9.9326  12.2446  12.5770

          k = 0.0779-0.0450 0.3381 (  2817 PWs)   bands (ev):

   -26.3548  -9.0816  -7.7970  -7.6259  -6.5826  -4.3983   5.1849   7.6799
     8.4279   8.8665  11.7236  12.3098

          k = 0.0779-0.0450 0.5635 (  2790 PWs)   bands (ev):

   -26.0409 -10.1745  -7.4774  -7.3997  -5.6918  -4.0013   2.8726   5.5159
     9.5313  10.1875  10.8116  11.4945

          k = 0.2337 0.4047 0.1127 (  2812 PWs)   bands (ev):

   -26.5751  -9.6943  -8.6837  -6.9980  -5.4449  -5.2844   7.5547   8.8971
     9.2969  10.3649  11.1415  13.0278

          k = 0.2337 0.4047 0.3381 (  2817 PWs)   bands (ev):

   -26.2959  -9.0912  -8.3901  -8.2117  -5.3256  -4.9742   5.9037   6.5736
     8.4350  10.4725  11.5474  12.6661

          k = 0.2337 0.4047 0.5635 (  2818 PWs)   bands (ev):

   -25.9945  -9.6921  -8.1751  -7.7439  -5.3865  -4.5303   3.7990   4.3035
     9.4814  10.4686  11.8237  11.9709

          k = 0.2337 0.5846 0.1127 (  2823 PWs)   bands (ev):

   -26.5685  -9.6202  -8.9443  -6.9853  -5.4248  -5.1209   7.3860   8.9693
     9.1953  10.5924  11.1569  13.2023

          k = 0.2337 0.5846 0.3381 (  2819 PWs)   bands (ev):

   -26.2902  -9.0067  -8.4451  -8.3588  -5.2074  -5.0109   6.1395   6.3741
     8.2984  10.7475  11.3757  12.7805

          k = 0.2337 0.5846 0.5635 (  2828 PWs)   bands (ev):

   -25.9900  -9.6380  -8.1690  -7.8558  -5.2319  -4.7319   4.0247   4.1348
     9.5004  10.8077  11.5258  11.9252

          k = 0.2337-0.3148 0.1127 (  2818 PWs)   bands (ev):

   -26.5869  -9.7071  -8.3406  -7.0320  -5.7346  -5.2858   7.7816   8.7760
     9.4038   9.9163  11.2708  12.8096

          k = 0.2337-0.3148 0.3381 (  2819 PWs)   bands (ev):

   -26.3060  -9.1290  -8.4099  -7.9550  -5.5861  -4.8332   5.6365   6.7919
     8.5437  10.1170  11.7631  12.5884

          k = 0.2337-0.3148 0.5635 (  2814 PWs)   bands (ev):

   -26.0023  -9.7805  -8.1382  -7.6013  -5.5537  -4.2831   3.5202   4.5072
     9.3241  10.2961  11.9436  12.1229

          k = 0.2337-0.1349 0.1127 (  2834 PWs)   bands (ev):

   -26.6125  -9.4760  -7.9080  -7.1586  -6.2798  -5.1908   8.0825   8.2202
     9.2549   9.6273  11.5687  12.6422

          k = 0.2337-0.1349 0.3381 (  2819 PWs)   bands (ev):

   -26.3275  -9.0867  -8.3408  -7.6792  -5.9930  -4.6208   5.3063   7.1617
     8.4428   9.7540  11.6540  12.7007

          k = 0.2337-0.1349 0.5635 (  2804 PWs)   bands (ev):

   -26.0194  -9.9615  -7.9281  -7.4409  -5.6915  -4.0135   3.1172   4.9154
     9.1095  10.3133  11.6670  12.1210

          k = 0.3894 0.6745 0.1127 (  2824 PWs)   bands (ev):

   -26.5710  -9.8056  -8.5765  -6.9923  -5.7740  -4.9726   7.6447   8.9287
     9.2425  10.1351  11.4590  12.9824

          k = 0.3894 0.6745 0.3381 (  2827 PWs)   bands (ev):

   -26.2924  -9.1548  -8.4204  -8.1216  -5.4478  -4.8822   6.0747   6.4024
     8.4823  10.3791  11.6687  12.6910

          k = 0.3894 0.6745 0.5635 (  2818 PWs)   bands (ev):

   -25.9914  -9.6547  -8.2660  -7.6940  -5.4205  -4.5425   3.9820   4.1238
     9.3028  10.7799  11.7364  12.0329

          k = 0.3894-0.2248 0.1127 (  2824 PWs)   bands (ev):

   -26.5802  -9.9149  -7.9728  -7.0643  -6.2618  -4.9258   8.3749   8.4992
     9.2973   9.5277  11.9196  12.4994

          k = 0.3894-0.2248 0.3381 (  2817 PWs)   bands (ev):

   -26.3001  -9.2376  -8.4623  -7.7338  -5.8404  -4.6861   5.7106   6.6541
     8.6747   9.8845  12.1812  12.5870

          k = 0.3894-0.2248 0.5635 (  2810 PWs)   bands (ev):

   -25.9975  -9.7194  -8.3010  -7.4827  -5.6930  -4.2152   3.6082   4.3681
     8.9575  10.6510  12.0804  12.3240

          k =-0.0779-0.3148 0.1127 (  2825 PWs)   bands (ev):

   -26.6006  -9.6413  -8.0350  -7.0401  -6.0134  -5.3564   8.1571   8.6734
     9.2367   9.6867  11.3940  12.3949

          k =-0.0779-0.3148 0.3381 (  2820 PWs)   bands (ev):

   -26.3175  -9.1963  -8.2964  -7.7664  -5.5398  -5.0729   5.6350   6.9763
     8.8857   9.7773  11.5799  12.1042

          k =-0.0779-0.3148 0.5635 (  2810 PWs)   bands (ev):

   -26.0115  -9.8884  -8.0451  -7.4892  -5.5110  -4.2919   3.4100   4.6798
     9.5501  10.1116  11.5193  12.0595

          k =-0.0779-0.4947 0.1127 (  2821 PWs)   bands (ev):

   -26.5752  -9.9235  -8.1692  -7.0002  -6.1161  -4.9440   8.1306   8.8361
     9.3103   9.6384  11.7043  12.5826

          k =-0.0779-0.4947 0.3381 (  2819 PWs)   bands (ev):

   -26.2959  -9.2769  -8.3940  -7.8553  -5.5831  -4.9217   6.0828   6.4230
     8.7674  10.0763  11.8308  12.3835

          k =-0.0779-0.4947 0.5635 (  2816 PWs)   bands (ev):

   -25.9943  -9.6899  -8.3141  -7.5448  -5.5315  -4.4364   3.9850   4.0828
     9.1477  10.8211  11.8014  12.0828

          k =-0.0779 0.4047 0.1127 (  2826 PWs)   bands (ev):

   -26.5845  -9.8178  -8.1236  -7.0557  -6.0698  -5.0497   8.0044   8.6909
     9.3364   9.6825  11.6269  12.6846

          k =-0.0779 0.4047 0.3381 (  2823 PWs)   bands (ev):

   -26.3039  -9.1729  -8.4630  -7.8134  -5.7706  -4.7016   5.6175   6.7456
     8.5782   9.9705  12.0170  12.6720

          k =-0.0779 0.4047 0.5635 (  2806 PWs)   bands (ev):

   -26.0005  -9.7553  -8.2241  -7.5238  -5.6568  -4.2025   3.5169   4.4646
     9.0593  10.5038  12.0691  12.2544

          k =-0.0779 0.2248 0.1127 (  2825 PWs)   bands (ev):

   -26.6190  -9.3458  -7.9490  -7.1465  -6.3504  -5.1877   7.9380   8.3169
     9.0458   9.7272  11.6060  12.6099

          k =-0.0779 0.2248 0.3381 (  2814 PWs)   bands (ev):

   -26.3332  -9.0904  -8.2357  -7.6989  -6.0153  -4.6448   5.3059   7.2650
     8.4913   9.6121  11.5529  12.5589

          k =-0.0779 0.2248 0.5635 (  2803 PWs)   bands (ev):

   -26.0240 -10.0107  -7.8292  -7.4490  -5.6488  -4.0436   3.0778   5.0290
     9.2907  10.2068  11.3876  12.0371

          k =-0.0779 0.0450 0.1127 (  2815 PWs)   bands (ev):

   -26.6440  -8.6819  -7.8438  -7.5008  -6.9184  -4.8609   7.8499   7.8709
     8.3659   9.9386  12.3903  12.4127

          k =-0.0779 0.0450 0.3381 (  2817 PWs)   bands (ev):

   -26.3548  -9.0861  -7.7891  -7.6281  -6.5746  -4.4123   5.1981   7.6745
     8.5970   8.7076  11.7477  12.2481

          k =-0.0779 0.0450 0.5635 (  2790 PWs)   bands (ev):

   -26.0409 -10.1750  -7.4773  -7.4008  -5.6803  -4.0156   2.8803   5.5157
     9.6454  10.0935  10.7412  11.5274

          k =-0.2337-0.5846 0.1127 (  2823 PWs)   bands (ev):

   -26.5685  -9.6181  -8.9465  -6.9866  -5.4406  -5.1020   7.3756   8.9877
     9.1717  10.5701  11.1889  13.2156

          k =-0.2337-0.5846 0.3381 (  2819 PWs)   bands (ev):

   -26.2902  -8.9915  -8.4950  -8.3253  -5.2697  -4.9429   6.0865   6.4129
     8.2889  10.6941  11.4455  12.8100

          k =-0.2337-0.5846 0.5635 (  2828 PWs)   bands (ev):

   -25.9900  -9.6369  -8.1700  -7.8560  -5.2579  -4.7026   3.9745   4.1789
     9.4800  10.7828  11.5944  11.9205

          k =-0.2337 0.3148 0.1127 (  2818 PWs)   bands (ev):

   -26.5869  -9.7147  -8.3343  -7.0167  -5.6476  -5.3969   7.8564   8.7865
     9.4548   9.9220  11.1787  12.7147

          k =-0.2337 0.3148 0.3381 (  2819 PWs)   bands (ev):

   -26.3060  -9.1728  -8.3412  -7.9722  -5.3804  -5.0753   5.7542   6.7645
     8.6566  10.1736  11.5867  12.3665

          k =-0.2337 0.3148 0.5635 (  2814 PWs)   bands (ev):

   -26.0024  -9.7860  -8.1353  -7.6008  -5.4754  -4.3829   3.5993   4.4699
     9.5013  10.2240  11.8311  12.0059

          k =-0.2337 0.1349 0.1127 (  2834 PWs)   bands (ev):

   -26.6125  -9.4959  -7.9099  -7.0683  -6.2672  -5.2949   8.2675   8.5582
     8.8076   9.7668  11.6531  12.2343

          k =-0.2337 0.1349 0.3381 (  2819 PWs)   bands (ev):

   -26.3275  -9.1719  -8.2353  -7.6835  -5.7578  -4.9400   5.5173   7.1597
     9.0302   9.3748  11.5426  12.0863

          k =-0.2337 0.1349 0.5635 (  2804 PWs)   bands (ev):

   -26.0193  -9.9710  -7.9271  -7.4432  -5.5309  -4.2231   3.2513   4.8861
     9.6821   9.9993  11.1861  12.0637

          k =-0.3894 0.2248 0.1127 (  2824 PWs)   bands (ev):

   -26.5802  -9.9264  -7.9737  -7.0041  -6.2483  -5.0087   8.6093   8.6956
     9.1034   9.5337  11.8084  12.2738

          k =-0.3894 0.2248 0.3381 (  2817 PWs)   bands (ev):

   -26.3000  -9.3085  -8.3742  -7.7359  -5.5688  -5.0336   6.0315   6.5272
     8.9608   9.9233  11.9335  12.0132

          k =-0.3894 0.2248 0.5635 (  2810 PWs)   bands (ev):

   -25.9976  -9.7327  -8.2922  -7.4839  -5.5408  -4.4118   3.8607   4.2045
     9.1456  10.7826  11.8450  11.9623

!    total energy              =    -139.67095391 Ry
     Harris-Foulkes estimate   =    -139.67095405 Ry
     estimated scf accuracy    <       0.00000031 Ry

     The total energy is the sum of the following terms:

     one-electron contribution =      -9.36529475 Ry
     hartree contribution      =      21.58213300 Ry
     xc contribution           =     -26.73001583 Ry
     ewald contribution        =    -125.15777633 Ry

     convergence has been achieved in   8 iterations

     Forces acting on atoms (Ry/au):

     atom    1 type  3   force =    -0.00000000    0.00000000   -0.00007330
     atom    2 type  2   force =     0.00000000   -0.00000000   -0.04753617
     atom    3 type  2   force =     0.00000000   -0.00000000    0.04762317
     atom    4 type  1   force =     0.00000000   -0.00000000    0.04068838
     atom    5 type  1   force =     0.00000000   -0.00000000   -0.04070209

     Total force =     0.088543     Total SCF correction =     0.000047


     entering subroutine stress ...

          total   stress  (Ry/bohr**3)                   (kbar)     P= 1014.32
   0.00621137  -0.00000000  -0.00000000        913.72     -0.00     -0.00
  -0.00000000   0.00621137   0.00000000         -0.00    913.72      0.00
  -0.00000000   0.00000000   0.00826284         -0.00      0.00   1215.50


     number of scf cycles    =   2
     number of bfgs steps    =   1

     enthalpy old            =    -137.7549016784 Ry
     enthalpy new            =    -137.7332366400 Ry

     CASE: enthalpy_new > enthalpy_old

     new trust radius        =       0.0679690970 bohr
     new conv_thr            =       0.0000010000 Ry

     new unit-cell volume =    175.41562 a.u.^3 (    25.99391 Ang^3 )

CELL_PARAMETERS (alat=  6.37640000)
   1.026375926   0.000000000   0.000000000
  -0.513187963   0.888867626   0.000000000
   0.000000000  -0.000000000   0.741648375

ATOMIC_POSITIONS (crystal)
Ca       0.000000000   0.000000000  -0.000007308
O        0.333333333   0.666666667   0.288734204
O        0.666666667   0.333333333   0.710265913
H        0.333333333   0.666666667   0.672893250
H        0.666666667   0.333333333   0.326113941



     Writing output data file CaOH2_ambient.save
     NEW-OLD atomic charge density approx. for the potential
     NEW k-points:
        k(    1) = (   0.0811918   0.1406284   0.1123623), wk =   0.0370370
        k(    2) = (   0.0811918   0.1406284   0.3370870), wk =   0.0370370
        k(    3) = (   0.0811918   0.1406284   0.5618116), wk =   0.0370370
        k(    4) = (   0.0811918   0.3281328   0.1123623), wk =   0.0370370
        k(    5) = (   0.0811918   0.3281328   0.3370870), wk =   0.0370370
        k(    6) = (   0.0811918   0.3281328   0.5618116), wk =   0.0370370
        k(    7) = (   0.0811918   0.5156373   0.1123623), wk =   0.0370370
        k(    8) = (   0.0811918   0.5156373   0.3370870), wk =   0.0370370
        k(    9) = (   0.0811918   0.5156373   0.5618116), wk =   0.0370370
        k(   10) = (   0.0811918  -0.4218851   0.1123623), wk =   0.0370370
        k(   11) = (   0.0811918  -0.4218851   0.3370870), wk =   0.0370370
        k(   12) = (   0.0811918  -0.4218851   0.5618116), wk =   0.0370370
        k(   13) = (   0.0811918  -0.2343806   0.1123623), wk =   0.0370370
        k(   14) = (   0.0811918  -0.2343806   0.3370870), wk =   0.0370370
        k(   15) = (   0.0811918  -0.2343806   0.5618116), wk =   0.0370370
        k(   16) = (   0.0811918  -0.0468761   0.1123623), wk =   0.0185185
        k(   17) = (   0.0811918  -0.0468761   0.3370870), wk =   0.0185185
        k(   18) = (   0.0811918  -0.0468761   0.5618116), wk =   0.0185185
        k(   19) = (   0.2435755   0.4218851   0.1123623), wk =   0.0370370
        k(   20) = (   0.2435755   0.4218851   0.3370870), wk =   0.0370370
        k(   21) = (   0.2435755   0.4218851   0.5618116), wk =   0.0370370
        k(   22) = (   0.2435755   0.6093896   0.1123623), wk =   0.0370370
        k(   23) = (   0.2435755   0.6093896   0.3370870), wk =   0.0370370
        k(   24) = (   0.2435755   0.6093896   0.5618116), wk =   0.0370370
        k(   25) = (   0.2435755  -0.3281328   0.1123623), wk =   0.0370370
        k(   26) = (   0.2435755  -0.3281328   0.3370870), wk =   0.0370370
        k(   27) = (   0.2435755  -0.3281328   0.5618116), wk =   0.0370370
        k(   28) = (   0.2435755  -0.1406284   0.1123623), wk =   0.0185185
        k(   29) = (   0.2435755  -0.1406284   0.3370870), wk =   0.0185185
        k(   30) = (   0.2435755  -0.1406284   0.5618116), wk =   0.0185185
        k(   31) = (   0.4059591   0.7031418   0.1123623), wk =   0.0370370
        k(   32) = (   0.4059591   0.7031418   0.3370870), wk =   0.0370370
        k(   33) = (   0.4059591   0.7031418   0.5618116), wk =   0.0370370
        k(   34) = (   0.4059591  -0.2343806   0.1123623), wk =   0.0185185
        k(   35) = (   0.4059591  -0.2343806   0.3370870), wk =   0.0185185
        k(   36) = (   0.4059591  -0.2343806   0.5618116), wk =   0.0185185
        k(   37) = (  -0.0811918  -0.3281328   0.1123623), wk =   0.0370370
        k(   38) = (  -0.0811918  -0.3281328   0.3370870), wk =   0.0370370
        k(   39) = (  -0.0811918  -0.3281328   0.5618116), wk =   0.0370370
        k(   40) = (  -0.0811918  -0.5156373   0.1123623), wk =   0.0370370
        k(   41) = (  -0.0811918  -0.5156373   0.3370870), wk =   0.0370370
        k(   42) = (  -0.0811918  -0.5156373   0.5618116), wk =   0.0370370
        k(   43) = (  -0.0811918   0.4218851   0.1123623), wk =   0.0370370
        k(   44) = (  -0.0811918   0.4218851   0.3370870), wk =   0.0370370
        k(   45) = (  -0.0811918   0.4218851   0.5618116), wk =   0.0370370
        k(   46) = (  -0.0811918   0.2343806   0.1123623), wk =   0.0370370
        k(   47) = (  -0.0811918   0.2343806   0.3370870), wk =   0.0370370
        k(   48) = (  -0.0811918   0.2343806   0.5618116), wk =   0.0370370
        k(   49) = (  -0.0811918   0.0468761   0.1123623), wk =   0.0185185
        k(   50) = (  -0.0811918   0.0468761   0.3370870), wk =   0.0185185
        k(   51) = (  -0.0811918   0.0468761   0.5618116), wk =   0.0185185
        k(   52) = (  -0.2435755  -0.6093896   0.1123623), wk =   0.0370370
        k(   53) = (  -0.2435755  -0.6093896   0.3370870), wk =   0.0370370
        k(   54) = (  -0.2435755  -0.6093896   0.5618116), wk =   0.0370370
        k(   55) = (  -0.2435755   0.3281328   0.1123623), wk =   0.0370370
        k(   56) = (  -0.2435755   0.3281328   0.3370870), wk =   0.0370370
        k(   57) = (  -0.2435755   0.3281328   0.5618116), wk =   0.0370370
        k(   58) = (  -0.2435755   0.1406284   0.1123623), wk =   0.0185185
        k(   59) = (  -0.2435755   0.1406284   0.3370870), wk =   0.0185185
        k(   60) = (  -0.2435755   0.1406284   0.5618116), wk =   0.0185185
        k(   61) = (  -0.4059591   0.2343806   0.1123623), wk =   0.0185185
        k(   62) = (  -0.4059591   0.2343806   0.3370870), wk =   0.0185185
        k(   63) = (  -0.4059591   0.2343806   0.5618116), wk =   0.0185185
     extrapolated charge   22.16687, renormalised to   24.00000

     total cpu time spent up to now is      317.4 secs

     per-process dynamical memory:    16.4 Mb

     Self-consistent Calculation

     iteration #  1     ecut=   100.00 Ry     beta=0.30
     Davidson diagonalization with overlap
     ethr =  1.00E-06,  avg # of iterations =  5.1

     total cpu time spent up to now is      338.3 secs

     total energy              =    -139.40248066 Ry
     Harris-Foulkes estimate   =    -140.01012410 Ry
     estimated scf accuracy    <       0.20111686 Ry

     iteration #  2     ecut=   100.00 Ry     beta=0.30
     Davidson diagonalization with overlap
     ethr =  8.38E-04,  avg # of iterations =  3.0

     total cpu time spent up to now is      349.8 secs

     total energy              =    -139.55771765 Ry
     Harris-Foulkes estimate   =    -139.56078556 Ry
     estimated scf accuracy    <       0.01773144 Ry

     iteration #  3     ecut=   100.00 Ry     beta=0.30
     Davidson diagonalization with overlap
     ethr =  7.39E-05,  avg # of iterations =  1.4

     total cpu time spent up to now is      357.3 secs

     total energy              =    -139.55214593 Ry
     Harris-Foulkes estimate   =    -139.55825185 Ry
     estimated scf accuracy    <       0.00992148 Ry

     iteration #  4     ecut=   100.00 Ry     beta=0.30
     Davidson diagonalization with overlap
     ethr =  4.13E-05,  avg # of iterations =  2.1

     total cpu time spent up to now is      367.3 secs

     total energy              =    -139.55505045 Ry
     Harris-Foulkes estimate   =    -139.55574618 Ry
     estimated scf accuracy    <       0.00159959 Ry

     iteration #  5     ecut=   100.00 Ry     beta=0.30
     Davidson diagonalization with overlap
     ethr =  6.66E-06,  avg # of iterations =  2.0

     total cpu time spent up to now is      376.9 secs

     total energy              =    -139.55520459 Ry
     Harris-Foulkes estimate   =    -139.55527610 Ry
     estimated scf accuracy    <       0.00012613 Ry

     iteration #  6     ecut=   100.00 Ry     beta=0.30
     Davidson diagonalization with overlap
     ethr =  5.26E-07,  avg # of iterations =  2.0

     total cpu time spent up to now is      387.7 secs

     total energy              =    -139.55522767 Ry
     Harris-Foulkes estimate   =    -139.55523106 Ry
     estimated scf accuracy    <       0.00002047 Ry

     iteration #  7     ecut=   100.00 Ry     beta=0.30
     Davidson diagonalization with overlap
     ethr =  8.53E-08,  avg # of iterations =  1.0

     total cpu time spent up to now is      394.9 secs

     total energy              =    -139.55522190 Ry
     Harris-Foulkes estimate   =    -139.55522799 Ry
     estimated scf accuracy    <       0.00001099 Ry

     iteration #  8     ecut=   100.00 Ry     beta=0.30
     Davidson diagonalization with overlap
     ethr =  4.58E-08,  avg # of iterations =  2.0

     total cpu time spent up to now is      404.1 secs

     End of self-consistent calculation

          k = 0.0812 0.1406 0.1124 (  2820 PWs)   bands (ev):

   -24.8928  -7.9506  -6.1841  -5.6043  -5.0390  -3.3868   8.8943   9.1040
     9.6002  11.1168  13.5278  14.0917

          k = 0.0812 0.1406 0.3371 (  2812 PWs)   bands (ev):

   -24.5987  -7.9196  -6.3937  -5.9445  -4.6553  -2.9572   6.1763   8.7597
     9.5318  10.2819  12.8744  13.8972

          k = 0.0812 0.1406 0.5618 (  2794 PWs)   bands (ev):

   -24.2794  -8.7440  -6.0489  -5.7006  -4.1604  -2.5293   3.9949   6.5474
    10.4966  11.3927  11.9487  13.1040

          k = 0.0812 0.3281 0.1124 (  2825 PWs)   bands (ev):

   -24.8309  -8.6609  -6.4657  -5.4271  -4.4264  -3.4910   9.0409   9.5787
    10.6193  10.9147  12.9176  14.1887

          k = 0.0812 0.3281 0.3371 (  2820 PWs)   bands (ev):

   -24.5454  -8.0504  -6.8044  -6.1109  -4.2678  -3.0131   6.3295   8.1289
     9.5843  11.2735  13.2079  14.1404

          k = 0.0812 0.3281 0.5618 (  2810 PWs)   bands (ev):

   -24.2363  -8.3446  -6.7291  -5.8212  -4.3208  -2.4844   4.2990   5.8515
    10.1190  11.5760  13.2320  13.6168

          k = 0.0812 0.5156 0.1124 (  2821 PWs)   bands (ev):

   -24.7848  -9.0148  -6.6879  -5.2906  -4.6789  -2.9317   9.2032   9.9492
    10.3341  11.1045  13.2873  14.1282

          k = 0.0812 0.5156 0.3371 (  2819 PWs)   bands (ev):

   -24.5057  -8.2592  -6.7629  -6.2574  -4.3288  -2.9572   6.8730   7.6190
     9.8257  11.4258  13.5324  14.0189

          k = 0.0812 0.5156 0.5618 (  2816 PWs)   bands (ev):

   -24.2043  -7.9761  -7.1348  -5.9241  -4.4329  -2.7495   4.7858   5.4737
    10.0456  12.1271  13.4403  13.6105

          k = 0.0812-0.4219 0.1124 (  2826 PWs)   bands (ev):

   -24.8018  -8.9111  -6.5896  -5.2395  -4.5930  -3.2681   9.4512   9.8221
    10.6159  10.9571  12.9098  13.8629

          k = 0.0812-0.4219 0.3371 (  2823 PWs)   bands (ev):

   -24.5203  -8.2593  -6.6215  -6.2396  -4.0022  -3.4250   6.9880   7.7416
    10.0935  11.4296  13.0303  13.4884

          k = 0.0812-0.4219 0.5618 (  2806 PWs)   bands (ev):

   -24.2160  -8.1670  -6.9313  -5.8864  -4.2365  -2.8786   4.8673   5.4546
    10.3485  11.8412  13.1490  13.3795

          k = 0.0812-0.2344 0.1124 (  2825 PWs)   bands (ev):

   -24.8642  -8.3484  -6.3029  -5.4001  -4.6502  -3.6481   9.0974   9.4599
    10.0746  10.9874  13.1440  13.9198

          k = 0.0812-0.2344 0.3371 (  2814 PWs)   bands (ev):

   -24.5741  -8.0165  -6.5602  -6.0297  -4.2252  -3.2755   6.3588   8.4704
     9.8450  10.6684  12.7650  13.8019

          k = 0.0812-0.2344 0.5618 (  2803 PWs)   bands (ev):

   -24.2595  -8.5819  -6.3755  -5.7563  -4.1173  -2.6222   4.1991   6.1755
    10.7047  11.1063  12.3377  13.4433

          k = 0.0812-0.0469 0.1124 (  2815 PWs)   bands (ev):

   -24.9092  -7.6181  -6.1263  -5.8763  -5.2191  -3.2014   8.7446   8.8927
     9.3464  11.1987  13.7851  14.1755

          k = 0.0812-0.0469 0.3371 (  2817 PWs)   bands (ev):

   -24.6130  -7.8864  -6.1599  -5.9039  -4.9911  -2.7961   6.1206   8.9700
     9.3863   9.9437  13.0623  13.7735

          k = 0.0812-0.0469 0.5618 (  2790 PWs)   bands (ev):

   -24.2909  -8.8334  -5.8146  -5.6722  -4.2068  -2.5251   3.9242   6.7918
    10.5123  11.3267  11.9154  12.7337

          k = 0.2436 0.4219 0.1124 (  2812 PWs)   bands (ev):

   -24.7849  -8.7409  -7.4235  -5.2254  -3.7416  -3.4130   8.6924   9.9431
    10.3570  11.8979  12.6139  14.5201

          k = 0.2436 0.4219 0.3371 (  2817 PWs)   bands (ev):

   -24.5058  -8.0531  -6.9292  -6.5839  -3.7155  -3.2666   6.9161   7.6359
     9.6218  11.8818  13.0456  14.0472

          k = 0.2436 0.4219 0.5618 (  2818 PWs)   bands (ev):

   -24.2044  -8.0053  -6.9167  -6.2620  -4.0676  -3.0304   4.9646   5.4046
    10.6142  11.7413  13.1592  13.4252

          k = 0.2436 0.6094 0.1124 (  2823 PWs)   bands (ev):

   -24.7726  -8.6468  -7.7784  -5.2032  -3.6788  -3.2221   8.5201   9.9879
    10.2394  12.1451  12.6715  14.7085

          k = 0.2436 0.6094 0.3371 (  2819 PWs)   bands (ev):

   -24.4952  -7.9510  -7.1876  -6.5974  -3.5966  -3.2755   7.2017   7.4081
     9.4641  12.1954  12.8595  14.1727

          k = 0.2436 0.6094 0.5618 (  2828 PWs)   bands (ev):

   -24.1959  -7.8941  -6.9143  -6.4508  -3.9127  -3.2718   5.2145   5.2590
    10.6504  12.1418  12.9423  13.2389

          k = 0.2436-0.3281 0.1124 (  2818 PWs)   bands (ev):

   -24.8063  -8.7584  -6.9350  -5.2885  -4.0644  -3.4860   8.8861   9.8635
    10.4833  11.3830  12.7257  14.3056

          k = 0.2436-0.3281 0.3371 (  2819 PWs)   bands (ev):

   -24.5242  -8.0908  -6.8032  -6.3852  -3.9998  -3.1376   6.5890   7.8894
     9.6979  11.5011  13.2606  13.9935

          k = 0.2436-0.3281 0.5618 (  2814 PWs)   bands (ev):

   -24.2192  -8.1711  -6.8618  -6.0178  -4.2295  -2.7211   4.6108   5.6169
    10.3806  11.5572  13.2750  13.6138

          k = 0.2436-0.1406 0.1124 (  2834 PWs)   bands (ev):

   -24.8521  -8.4846  -6.2289  -5.5591  -4.5914  -3.5212   9.1760   9.1809
    10.5743  10.7733  13.0382  14.2012

          k = 0.2436-0.1406 0.3371 (  2819 PWs)   bands (ev):

   -24.5636  -7.9849  -6.7671  -5.9885  -4.3940  -2.9692   6.1992   8.3288
     9.4557  11.1148  13.0346  14.2157

          k = 0.2436-0.1406 0.5618 (  2804 PWs)   bands (ev):

   -24.2510  -8.4875  -6.5464  -5.7387  -4.3093  -2.4011   4.1251   6.0613
    10.0611  11.5777  13.0135  13.4706

          k = 0.4060 0.7031 0.1124 (  2824 PWs)   bands (ev):

   -24.7771  -8.8767  -7.2843  -5.2158  -4.1705  -3.0232   8.8124   9.9678
    10.3051  11.6459  12.9623  14.4671

          k = 0.4060 0.7031 0.3371 (  2827 PWs)   bands (ev):

   -24.4991  -8.1464  -6.8638  -6.5434  -3.9453  -3.1064   7.1154   7.4541
     9.6702  11.7934  13.1561  14.0981

          k = 0.4060 0.7031 0.5618 (  2818 PWs)   bands (ev):

   -24.1989  -7.9264  -7.0527  -6.1882  -4.1779  -3.0144   5.0271   5.3601
    10.3749  12.1438  13.1857  13.3765

          k = 0.4060-0.2344 0.1124 (  2824 PWs)   bands (ev):

   -24.7939  -9.0108  -6.3299  -5.4605  -4.8288  -2.9660   9.4222   9.7670
    10.3493  10.9312  13.4558  13.9338

          k = 0.4060-0.2344 0.3371 (  2817 PWs)   bands (ev):

   -24.5135  -8.2525  -6.7900  -6.0748  -4.4933  -2.8826   6.6600   7.7556
     9.7886  11.3136  13.7215  14.0255

          k = 0.4060-0.2344 0.5618 (  2810 PWs)   bands (ev):

   -24.2105  -8.0426  -7.1139  -5.8060  -4.5244  -2.5936   4.6047   5.5644
     9.9071  12.0344  13.5652  13.7363

          k =-0.0812-0.3281 0.1124 (  2825 PWs)   bands (ev):

   -24.8309  -8.6823  -6.4501  -5.2978  -4.4427  -3.6382   9.3075   9.7250
    10.6123  10.8453  12.8268  13.8278

          k =-0.0812-0.3281 0.3371 (  2820 PWs)   bands (ev):

   -24.5454  -8.1507  -6.6126  -6.1389  -3.8028  -3.6564   6.6533   8.1223
    10.0814  11.0902  12.8448  13.5473

          k =-0.0812-0.3281 0.5618 (  2810 PWs)   bands (ev):

   -24.2363  -8.3758  -6.6862  -5.8238  -4.1384  -2.7729   4.5262   5.7833
    10.6193  11.3020  12.7741  13.5239

          k =-0.0812-0.5156 0.1124 (  2821 PWs)   bands (ev):

   -24.7848  -9.0223  -6.6799  -5.2350  -4.7068  -2.9789   9.3671   9.9004
    10.4507  11.0439  13.1817  14.0107

          k =-0.0812-0.5156 0.3371 (  2819 PWs)   bands (ev):

   -24.5057  -8.2984  -6.6709  -6.2818  -4.2336  -3.1317   7.1744   7.4625
     9.9698  11.4874  13.2735  13.7663

          k =-0.0812-0.5156 0.5618 (  2816 PWs)   bands (ev):

   -24.2043  -8.0086  -7.0941  -5.9251  -4.3621  -2.8667   4.9669   5.3581
    10.1498  12.2186  13.2373  13.4614

          k =-0.0812 0.4219 0.1124 (  2826 PWs)   bands (ev):

   -24.8018  -8.8922  -6.6077  -5.3629  -4.5510  -3.1442   9.1080   9.8235
    10.3879  11.1289  13.1219  14.1694

          k =-0.0812 0.4219 0.3371 (  2823 PWs)   bands (ev):

   -24.5203  -8.1622  -6.8286  -6.1954  -4.3131  -2.9287   6.5487   7.8461
     9.6958  11.3827  13.5400  14.1210

          k =-0.0812 0.4219 0.5618 (  2806 PWs)   bands (ev):

   -24.2160  -8.1150  -6.9999  -5.8842  -4.4118  -2.5936   4.5478   5.6159
    10.0376  11.8455  13.4977  13.6945

          k =-0.0812 0.2344 0.1124 (  2825 PWs)   bands (ev):

   -24.8642  -8.3346  -6.3087  -5.4896  -4.6087  -3.5893   8.9672   9.3199
    10.2977  10.9070  13.0813  14.1669

          k =-0.0812 0.2344 0.3371 (  2814 PWs)   bands (ev):

   -24.5741  -7.9666  -6.6526  -6.0198  -4.3526  -3.0602   6.2216   8.4583
     9.5155  10.9107  12.8823  14.0648

          k =-0.0812 0.2344 0.5618 (  2803 PWs)   bands (ev):

   -24.2595  -8.5719  -6.3887  -5.7542  -4.2140  -2.4755   4.1067   6.1880
    10.2786  11.4138  12.6445  13.4004

          k =-0.0812 0.0469 0.1124 (  2815 PWs)   bands (ev):

   -24.9092  -7.6238  -6.1281  -5.8460  -5.2387  -3.2076   8.8445   8.8587
     9.2864  11.2082  13.9294  14.0056

          k =-0.0812 0.0469 0.3371 (  2817 PWs)   bands (ev):

   -24.6130  -7.8937  -6.1402  -5.9078  -4.9854  -2.8194   6.1418   8.9531
     9.6221   9.7322  13.0638  13.7228

          k =-0.0812 0.0469 0.5618 (  2790 PWs)   bands (ev):

   -24.2909  -8.8345  -5.8130  -5.6743  -4.1877  -2.5508   3.9372   6.7921
    10.6624  11.1993  11.8156  12.7895

          k =-0.2436-0.6094 0.1124 (  2823 PWs)   bands (ev):

   -24.7726  -8.6439  -7.7819  -5.2055  -3.6931  -3.2018   8.5013  10.0225
    10.2013  12.1150  12.7136  14.7274

          k =-0.2436-0.6094 0.3371 (  2819 PWs)   bands (ev):

   -24.4952  -7.9349  -7.2152  -6.5894  -3.6546  -3.2061   7.1177   7.4688
     9.4522  12.1323  12.9448  14.2109

          k =-0.2436-0.6094 0.5618 (  2828 PWs)   bands (ev):

   -24.1959  -7.8881  -6.9256  -6.4470  -3.9390  -3.2385   5.1257   5.3382
    10.6224  12.1233  13.0357  13.2148

          k =-0.2436 0.3281 0.1124 (  2818 PWs)   bands (ev):

   -24.8063  -8.7686  -6.9221  -5.2576  -4.0045  -3.5986   9.0091   9.8429
    10.5886  11.3749  12.6024  14.1760

          k =-0.2436 0.3281 0.3371 (  2819 PWs)   bands (ev):

   -24.5242  -8.1414  -6.6516  -6.4598  -3.7375  -3.4787   6.7665   7.8576
     9.8553  11.5449  13.0310  13.7207

          k =-0.2436 0.3281 0.5618 (  2814 PWs)   bands (ev):

   -24.2192  -8.1914  -6.8322  -6.0200  -4.1428  -2.8562   4.7395   5.5569
    10.6104  11.4305  13.1365  13.4975

          k =-0.2436 0.1406 0.1124 (  2834 PWs)   bands (ev):

   -24.8521  -8.5111  -6.2323  -5.3425  -4.6863  -3.6560   9.4265   9.5482
    10.0752  10.9683  13.1443  13.6538

          k =-0.2436 0.1406 0.3371 (  2819 PWs)   bands (ev):

   -24.5636  -8.0954  -6.5758  -5.9961  -4.0467  -3.5155   6.5228   8.3499
    10.2220  10.5953  12.7163  13.6038

          k =-0.2436 0.1406 0.5618 (  2804 PWs)   bands (ev):

   -24.2510  -8.5138  -6.5117  -5.7428  -4.0988  -2.7260   4.3474   6.0188
    10.7448  11.1798  12.3488  13.5086

          k =-0.4060 0.2344 0.1124 (  2824 PWs)   bands (ev):

   -24.7939  -9.0261  -6.3316  -5.2454  -4.9713  -3.0622   9.7849   9.9242
    10.4135  10.6982  13.3072  13.6205

          k =-0.4060 0.2344 0.3371 (  2817 PWs)   bands (ev):

   -24.5135  -8.3318  -6.6412  -6.0784  -4.3028  -3.2492   7.1447   7.5816
    10.1691  11.3417  13.2758  13.4082

          k =-0.4060 0.2344 0.5618 (  2810 PWs)   bands (ev):

   -24.2105  -8.1004  -7.0417  -5.8080  -4.3767  -2.8409   4.9383   5.3763
    10.1266  12.1786  13.2931  13.3055

!    total energy              =    -139.55522471 Ry
     Harris-Foulkes estimate   =    -139.55522504 Ry
     estimated scf accuracy    <       0.00000043 Ry

     The total energy is the sum of the following terms:

     one-electron contribution =      -4.16260155 Ry
     hartree contribution      =      20.33788118 Ry
     xc contribution           =     -26.91154011 Ry
     ewald contribution        =    -128.81896423 Ry

     convergence has been achieved in   8 iterations

     Forces acting on atoms (Ry/au):

     atom    1 type  3   force =     0.00000000    0.00000000   -0.00008655
     atom    2 type  2   force =     0.00000000   -0.00000000   -0.00612917
     atom    3 type  2   force =    -0.00000000    0.00000000    0.00616216
     atom    4 type  1   force =     0.00000000   -0.00000000    0.00686545
     atom    5 type  1   force =     0.00000000   -0.00000000   -0.00681189

     Total force =     0.013003     Total SCF correction =     0.000114


     entering subroutine stress ...

          total   stress  (Ry/bohr**3)                   (kbar)     P= 1436.28
   0.01004806  -0.00000000  -0.00000000       1478.12     -0.00     -0.00
  -0.00000000   0.01004806  -0.00000000         -0.00   1478.12     -0.00
   0.00000000   0.00000000   0.00919481          0.00      0.00   1352.60


     number of scf cycles    =   3
     number of bfgs steps    =   1

     enthalpy old            =    -137.7549016784 Ry
     enthalpy new            =    -137.7665477247 Ry

     CASE: enthalpy_new < enthalpy_old

     new trust radius        =       0.0680673533 bohr
     new conv_thr            =       0.0000000687 Ry

     new unit-cell volume =    171.90023 a.u.^3 (    25.47299 Ang^3 )

CELL_PARAMETERS (alat=  6.37640000)
   1.029350878   0.000000000   0.000000000
  -0.514675439   0.891444010   0.000000000
  -0.000000000  -0.000000000   0.722590573

ATOMIC_POSITIONS (crystal)
Ca       0.000000000   0.000000000  -0.000026550
O        0.333333333   0.666666667   0.287936036
O        0.666666667   0.333333333   0.711070745
H        0.333333333   0.666666667   0.673996814
H        0.666666667   0.333333333   0.325022955



     Writing output data file CaOH2_ambient.save
     NEW-OLD atomic charge density approx. for the potential
     NEW k-points:
        k(    1) = (   0.0809572   0.1402219   0.1153258), wk =   0.0370370
        k(    2) = (   0.0809572   0.1402219   0.3459774), wk =   0.0370370
        k(    3) = (   0.0809572   0.1402219   0.5766290), wk =   0.0370370
        k(    4) = (   0.0809572   0.3271845   0.1153258), wk =   0.0370370
        k(    5) = (   0.0809572   0.3271845   0.3459774), wk =   0.0370370
        k(    6) = (   0.0809572   0.3271845   0.5766290), wk =   0.0370370
        k(    7) = (   0.0809572   0.5141471   0.1153258), wk =   0.0370370
        k(    8) = (   0.0809572   0.5141471   0.3459774), wk =   0.0370370
        k(    9) = (   0.0809572   0.5141471   0.5766290), wk =   0.0370370
        k(   10) = (   0.0809572  -0.4206658   0.1153258), wk =   0.0370370
        k(   11) = (   0.0809572  -0.4206658   0.3459774), wk =   0.0370370
        k(   12) = (   0.0809572  -0.4206658   0.5766290), wk =   0.0370370
        k(   13) = (   0.0809572  -0.2337032   0.1153258), wk =   0.0370370
        k(   14) = (   0.0809572  -0.2337032   0.3459774), wk =   0.0370370
        k(   15) = (   0.0809572  -0.2337032   0.5766290), wk =   0.0370370
        k(   16) = (   0.0809572  -0.0467406   0.1153258), wk =   0.0185185
        k(   17) = (   0.0809572  -0.0467406   0.3459774), wk =   0.0185185
        k(   18) = (   0.0809572  -0.0467406   0.5766290), wk =   0.0185185
        k(   19) = (   0.2428715   0.4206658   0.1153258), wk =   0.0370370
        k(   20) = (   0.2428715   0.4206658   0.3459774), wk =   0.0370370
        k(   21) = (   0.2428715   0.4206658   0.5766290), wk =   0.0370370
        k(   22) = (   0.2428715   0.6076284   0.1153258), wk =   0.0370370
        k(   23) = (   0.2428715   0.6076284   0.3459774), wk =   0.0370370
        k(   24) = (   0.2428715   0.6076284   0.5766290), wk =   0.0370370
        k(   25) = (   0.2428715  -0.3271845   0.1153258), wk =   0.0370370
        k(   26) = (   0.2428715  -0.3271845   0.3459774), wk =   0.0370370
        k(   27) = (   0.2428715  -0.3271845   0.5766290), wk =   0.0370370
        k(   28) = (   0.2428715  -0.1402219   0.1153258), wk =   0.0185185
        k(   29) = (   0.2428715  -0.1402219   0.3459774), wk =   0.0185185
        k(   30) = (   0.2428715  -0.1402219   0.5766290), wk =   0.0185185
        k(   31) = (   0.4047858   0.7011097   0.1153258), wk =   0.0370370
        k(   32) = (   0.4047858   0.7011097   0.3459774), wk =   0.0370370
        k(   33) = (   0.4047858   0.7011097   0.5766290), wk =   0.0370370
        k(   34) = (   0.4047858  -0.2337032   0.1153258), wk =   0.0185185
        k(   35) = (   0.4047858  -0.2337032   0.3459774), wk =   0.0185185
        k(   36) = (   0.4047858  -0.2337032   0.5766290), wk =   0.0185185
        k(   37) = (  -0.0809572  -0.3271845   0.1153258), wk =   0.0370370
        k(   38) = (  -0.0809572  -0.3271845   0.3459774), wk =   0.0370370
        k(   39) = (  -0.0809572  -0.3271845   0.5766290), wk =   0.0370370
        k(   40) = (  -0.0809572  -0.5141471   0.1153258), wk =   0.0370370
        k(   41) = (  -0.0809572  -0.5141471   0.3459774), wk =   0.0370370
        k(   42) = (  -0.0809572  -0.5141471   0.5766290), wk =   0.0370370
        k(   43) = (  -0.0809572   0.4206658   0.1153258), wk =   0.0370370
        k(   44) = (  -0.0809572   0.4206658   0.3459774), wk =   0.0370370
        k(   45) = (  -0.0809572   0.4206658   0.5766290), wk =   0.0370370
        k(   46) = (  -0.0809572   0.2337032   0.1153258), wk =   0.0370370
        k(   47) = (  -0.0809572   0.2337032   0.3459774), wk =   0.0370370
        k(   48) = (  -0.0809572   0.2337032   0.5766290), wk =   0.0370370
        k(   49) = (  -0.0809572   0.0467406   0.1153258), wk =   0.0185185
        k(   50) = (  -0.0809572   0.0467406   0.3459774), wk =   0.0185185
        k(   51) = (  -0.0809572   0.0467406   0.5766290), wk =   0.0185185
        k(   52) = (  -0.2428715  -0.6076284   0.1153258), wk =   0.0370370
        k(   53) = (  -0.2428715  -0.6076284   0.3459774), wk =   0.0370370
        k(   54) = (  -0.2428715  -0.6076284   0.5766290), wk =   0.0370370
        k(   55) = (  -0.2428715   0.3271845   0.1153258), wk =   0.0370370
        k(   56) = (  -0.2428715   0.3271845   0.3459774), wk =   0.0370370
        k(   57) = (  -0.2428715   0.3271845   0.5766290), wk =   0.0370370
        k(   58) = (  -0.2428715   0.1402219   0.1153258), wk =   0.0185185
        k(   59) = (  -0.2428715   0.1402219   0.3459774), wk =   0.0185185
        k(   60) = (  -0.2428715   0.1402219   0.5766290), wk =   0.0185185
        k(   61) = (  -0.4047858   0.2337032   0.1153258), wk =   0.0185185
        k(   62) = (  -0.4047858   0.2337032   0.3459774), wk =   0.0185185
        k(   63) = (  -0.4047858   0.2337032   0.5766290), wk =   0.0185185
     extrapolated charge   23.55010, renormalised to   24.00000

     total cpu time spent up to now is      467.9 secs

     per-process dynamical memory:    16.4 Mb

     Self-consistent Calculation

     iteration #  1     ecut=   100.00 Ry     beta=0.30
     Davidson diagonalization with overlap
     ethr =  1.00E-06,  avg # of iterations =  4.2

     total cpu time spent up to now is      484.9 secs

     total energy              =    -139.51143820 Ry
     Harris-Foulkes estimate   =    -139.61331987 Ry
     estimated scf accuracy    <       0.01091752 Ry

     iteration #  2     ecut=   100.00 Ry     beta=0.30
     Davidson diagonalization with overlap
     ethr =  4.55E-05,  avg # of iterations =  3.0

     total cpu time spent up to now is      496.5 secs

     total energy              =    -139.52050862 Ry
     Harris-Foulkes estimate   =    -139.52074275 Ry
     estimated scf accuracy    <       0.00134759 Ry

     iteration #  3     ecut=   100.00 Ry     beta=0.30
     Davidson diagonalization with overlap
     ethr =  5.61E-06,  avg # of iterations =  1.0

     total cpu time spent up to now is      504.2 secs

     total energy              =    -139.52004477 Ry
     Harris-Foulkes estimate   =    -139.52053613 Ry
     estimated scf accuracy    <       0.00077503 Ry

     iteration #  4     ecut=   100.00 Ry     beta=0.30
     Davidson diagonalization with overlap
     ethr =  3.23E-06,  avg # of iterations =  2.2

     total cpu time spent up to now is      513.9 secs

     total energy              =    -139.52026411 Ry
     Harris-Foulkes estimate   =    -139.52032587 Ry
     estimated scf accuracy    <       0.00014078 Ry

     iteration #  5     ecut=   100.00 Ry     beta=0.30
     Davidson diagonalization with overlap
     ethr =  5.87E-07,  avg # of iterations =  2.0

     total cpu time spent up to now is      523.3 secs

     total energy              =    -139.52027925 Ry
     Harris-Foulkes estimate   =    -139.52028334 Ry
     estimated scf accuracy    <       0.00000869 Ry

     iteration #  6     ecut=   100.00 Ry     beta=0.30
     Davidson diagonalization with overlap
     ethr =  3.62E-08,  avg # of iterations =  2.0

     total cpu time spent up to now is      532.1 secs

     total energy              =    -139.52028086 Ry
     Harris-Foulkes estimate   =    -139.52028080 Ry
     estimated scf accuracy    <       0.00000078 Ry

     iteration #  7     ecut=   100.00 Ry     beta=0.30
     Davidson diagonalization with overlap
     ethr =  3.25E-09,  avg # of iterations =  1.0

     total cpu time spent up to now is      538.8 secs

     total energy              =    -139.52028054 Ry
     Harris-Foulkes estimate   =    -139.52028087 Ry
     estimated scf accuracy    <       0.00000091 Ry

     iteration #  8     ecut=   100.00 Ry     beta=0.30
     Davidson diagonalization with overlap
     ethr =  3.25E-09,  avg # of iterations =  2.0

     total cpu time spent up to now is      546.5 secs

     total energy              =    -139.52028053 Ry
     Harris-Foulkes estimate   =    -139.52028060 Ry
     estimated scf accuracy    <       0.00000015 Ry

     iteration #  9     ecut=   100.00 Ry     beta=0.30
     Davidson diagonalization with overlap
     ethr =  6.14E-10,  avg # of iterations =  2.0

     total cpu time spent up to now is      555.0 secs

     End of self-consistent calculation

          k = 0.0810 0.1402 0.1153 (  2820 PWs)   bands (ev):

   -24.7481  -7.8228  -5.9999  -5.3210  -4.7408  -3.3061   9.0896   9.4278
     9.9945  11.6649  13.8880  14.4477

          k = 0.0810 0.1402 0.3460 (  2812 PWs)   bands (ev):

   -24.3912  -7.7202  -6.1885  -5.7175  -4.4666  -2.8051   6.4954   9.0772
     9.7840  10.5209  13.2541  14.2661

          k = 0.0810 0.1402 0.5766 (  2794 PWs)   bands (ev):

   -23.9973  -8.6885  -5.7755  -5.4252  -3.9510  -2.2448   4.0789   6.6788
    10.8205  11.7367  12.2873  13.4817

          k = 0.0810 0.3272 0.1153 (  2825 PWs)   bands (ev):

   -24.6867  -8.5378  -6.2909  -5.0714  -4.2266  -3.3597   9.3420   9.9895
    11.1725  11.2036  13.2377  14.5317

          k = 0.0810 0.3272 0.3460 (  2820 PWs)   bands (ev):

   -24.3386  -7.8683  -6.5999  -5.8900  -4.0572  -2.8517   6.6706   8.4732
     9.8618  11.5382  13.5221  14.5102

          k = 0.0810 0.3272 0.5766 (  2810 PWs)   bands (ev):

   -23.9556  -8.3220  -6.4447  -5.5439  -4.0656  -2.2329   4.4254   5.9968
    10.4546  11.8985  13.5676  13.9808

          k = 0.0810 0.5141 0.1153 (  2821 PWs)   bands (ev):

   -24.6410  -8.8915  -6.5261  -4.9430  -4.5012  -2.7446   9.5112  10.3966
    10.8954  11.4017  13.5902  14.4655

          k = 0.0810 0.5141 0.3460 (  2819 PWs)   bands (ev):

   -24.2995  -8.0733  -6.5817  -6.0412  -4.1259  -2.7476   7.2241   7.9586
    10.1194  11.6987  13.8419  14.3808

          k = 0.0810 0.5141 0.5766 (  2816 PWs)   bands (ev):

   -23.9247  -7.9932  -6.8448  -5.6424  -4.1298  -2.5148   4.9460   5.6019
    10.3908  12.4451  13.7701  13.9685

          k = 0.0810-0.4207 0.1153 (  2826 PWs)   bands (ev):

   -24.6578  -8.7861  -6.4242  -4.8327  -4.4865  -3.0757   9.6860  10.3682
    11.0766  11.3007  13.2145  14.2106

          k = 0.0810-0.4207 0.3460 (  2823 PWs)   bands (ev):

   -24.3139  -8.0696  -6.4442  -6.0182  -3.8235  -3.1952   7.3019   8.0968
    10.3769  11.7126  13.3518  13.8398

          k = 0.0810-0.4207 0.5766 (  2806 PWs)   bands (ev):

   -23.9360  -8.1517  -6.6654  -5.6056  -3.9409  -2.6437   4.9982   5.6022
    10.7009  12.1664  13.4963  13.6986

          k = 0.0810-0.2337 0.1153 (  2825 PWs)   bands (ev):

[...]
        k(   60) = (  -0.2421683   0.1398159   0.5798829), wk =   0.0185185
        k(   61) = (  -0.4036138   0.2330266   0.1159766), wk =   0.0185185
        k(   62) = (  -0.4036138   0.2330266   0.3479297), wk =   0.0185185
        k(   63) = (  -0.4036138   0.2330266   0.5798829), wk =   0.0185185

     Dense  grid:    16581 G-vectors     FFT dimensions: (  40,  40,  27)

     Largest allocated arrays     est. size (Mb)     dimensions
        Kohn-Sham Wavefunctions         0.53 Mb     (   2921,   12)
        NL pseudopotentials             0.40 Mb     (   2921,    9)
        Each V/rho on FFT grid          0.66 Mb     (  43200)
        Each G-vector array             0.13 Mb     (  16581)
        G-vector shells                 0.01 Mb     (    805)
     Largest temporary arrays     est. size (Mb)     dimensions
        Auxiliary wavefunctions         2.14 Mb     (   2921,   48)
        Each subspace H/S matrix        0.04 Mb     (  48,  48)
        Each <psi_i|beta_j> matrix      0.00 Mb     (      9,   12)
        Arrays for rho mixing          10.55 Mb     (  43200,  16)

     Initial potential from superposition of free atoms

     starting charge   21.99998, renormalised to   24.00000
     Starting wfc are   14 randomized atomic wfcs

     Writing output data file CaOH2_ambient.save

     total cpu time spent up to now is     1241.2 secs

     per-process dynamical memory:    14.5 Mb

     Self-consistent Calculation

     iteration #  1     ecut=   100.00 Ry     beta=0.30
     Davidson diagonalization with overlap
     ethr =  1.00E-06,  avg # of iterations =  5.6

     total cpu time spent up to now is     1263.9 secs

     total energy              =    -139.66585906 Ry
     Harris-Foulkes estimate   =    -139.74891275 Ry
     estimated scf accuracy    <       0.47264600 Ry

     iteration #  2     ecut=   100.00 Ry     beta=0.30
     Davidson diagonalization with overlap
     ethr =  1.97E-03,  avg # of iterations =  1.0

     total cpu time spent up to now is     1271.8 secs

     total energy              =    -139.47257736 Ry
     Harris-Foulkes estimate   =    -139.66977197 Ry
     estimated scf accuracy    <       0.30298096 Ry

     iteration #  3     ecut=   100.00 Ry     beta=0.30
     Davidson diagonalization with overlap
     ethr =  1.26E-03,  avg # of iterations =  2.0

     total cpu time spent up to now is     1282.1 secs

     total energy              =    -139.52291242 Ry
     Harris-Foulkes estimate   =    -139.52946514 Ry
     estimated scf accuracy    <       0.01881921 Ry

     iteration #  4     ecut=   100.00 Ry     beta=0.30
     Davidson diagonalization with overlap
     ethr =  7.84E-05,  avg # of iterations =  2.0

     total cpu time spent up to now is     1292.2 secs

     total energy              =    -139.52369062 Ry
     Harris-Foulkes estimate   =    -139.52601412 Ry
     estimated scf accuracy    <       0.00584773 Ry

     iteration #  5     ecut=   100.00 Ry     beta=0.30
     Davidson diagonalization with overlap
     ethr =  2.44E-05,  avg # of iterations =  1.8

     total cpu time spent up to now is     1299.9 secs

     total energy              =    -139.52298492 Ry
     Harris-Foulkes estimate   =    -139.52409304 Ry
     estimated scf accuracy    <       0.00210822 Ry

     iteration #  6     ecut=   100.00 Ry     beta=0.30
     Davidson diagonalization with overlap
     ethr =  8.78E-06,  avg # of iterations =  2.0

     total cpu time spent up to now is     1309.6 secs

     total energy              =    -139.52353358 Ry
     Harris-Foulkes estimate   =    -139.52358905 Ry
     estimated scf accuracy    <       0.00008972 Ry

     iteration #  7     ecut=   100.00 Ry     beta=0.30
     Davidson diagonalization with overlap
     ethr =  3.74E-07,  avg # of iterations =  2.0

     total cpu time spent up to now is     1320.4 secs

     total energy              =    -139.52356248 Ry
     Harris-Foulkes estimate   =    -139.52356736 Ry
     estimated scf accuracy    <       0.00001693 Ry

     iteration #  8     ecut=   100.00 Ry     beta=0.30
     Davidson diagonalization with overlap
     ethr =  7.05E-08,  avg # of iterations =  2.0

     total cpu time spent up to now is     1330.6 secs

     total energy              =    -139.52356521 Ry
     Harris-Foulkes estimate   =    -139.52356533 Ry
     estimated scf accuracy    <       0.00000024 Ry

     iteration #  9     ecut=   100.00 Ry     beta=0.30
     Davidson diagonalization with overlap
     ethr =  1.01E-09,  avg # of iterations =  2.0

     total cpu time spent up to now is     1341.4 secs

     total energy              =    -139.52356532 Ry
     Harris-Foulkes estimate   =    -139.52356529 Ry
     estimated scf accuracy    <       0.00000002 Ry

     iteration # 10     ecut=   100.00 Ry     beta=0.30
     Davidson diagonalization with overlap
     ethr =  8.89E-11,  avg # of iterations =  2.3

     total cpu time spent up to now is     1352.6 secs

     total energy              =    -139.52356530 Ry
     Harris-Foulkes estimate   =    -139.52356533 Ry
     estimated scf accuracy    <       0.00000006 Ry

     iteration # 11     ecut=   100.00 Ry     beta=0.30
     Davidson diagonalization with overlap
     ethr =  8.89E-11,  avg # of iterations =  3.0

     total cpu time spent up to now is     1363.8 secs

     End of self-consistent calculation

          k = 0.0807 0.1398 0.1160 (  2912 PWs)   bands (ev):

   -24.8075  -7.7457  -6.0497  -5.3076  -4.7156  -3.1728   9.0997   9.4730
    10.2544  11.9566  13.9244  14.4716

          k = 0.0807 0.1398 0.3479 (  2912 PWs)   bands (ev):

   -24.4374  -7.6334  -6.2175  -5.7602  -4.4148  -2.6056   6.5710   9.1564
     9.8066  10.5290  13.3068  14.3032

          k = 0.0807 0.1398 0.5799 (  2914 PWs)   bands (ev):

   -24.0277  -8.6874  -5.7878  -5.4583  -3.7609  -1.9853   4.0350   6.5395
    10.8657  11.7632  12.3568  13.5362

          k = 0.0807 0.3262 0.1160 (  2905 PWs)   bands (ev):

   -24.7480  -8.4851  -6.3189  -5.0278  -4.1688  -3.2779   9.3837  10.1312
    11.2817  11.4936  13.3025  14.5611

          k = 0.0807 0.3262 0.3479 (  2913 PWs)   bands (ev):

   -24.3864  -7.8040  -6.6143  -5.9257  -3.9353  -2.7056   6.7220   8.5485
     9.8838  11.5668  13.5702  14.5544

          k = 0.0807 0.3262 0.5799 (  2905 PWs)   bands (ev):

   -23.9872  -8.3550  -6.4302  -5.5700  -3.8331  -1.9777   4.3277   5.8774
    10.4959  11.9425  13.6236  14.0381

          k = 0.0807 0.5127 0.1160 (  2897 PWs)   bands (ev):

   -24.7037  -8.8459  -6.5371  -4.9026  -4.4240  -2.6787   9.5392  10.5113
    11.1592  11.5749  13.6509  14.5070

          k = 0.0807 0.5127 0.3479 (  2889 PWs)   bands (ev):

   -24.3485  -8.0223  -6.5993  -6.0683  -3.9602  -2.6200   7.2489   8.0306
    10.1337  11.7381  13.8974  14.4364

          k = 0.0807 0.5127 0.5799 (  2903 PWs)   bands (ev):

   -23.9573  -8.0659  -6.8139  -5.6602  -3.8567  -2.2678   4.8232   5.4812
    10.4284  12.4928  13.8349  14.0299

          k = 0.0807-0.4194 0.1160 (  2905 PWs)   bands (ev):

   -24.7200  -8.7367  -6.4452  -4.8216  -4.3768  -3.0094   9.6962  10.5548
    11.2661  11.4865  13.2798  14.2522

          k = 0.0807-0.4194 0.3479 (  2901 PWs)   bands (ev):

   -24.3624  -8.0081  -6.4846  -6.0411  -3.6414  -3.0813   7.3391   8.1652
    10.3817  11.7386  13.4136  13.9037

          k = 0.0807-0.4194 0.5799 (  2903 PWs)   bands (ev):

   -23.9682  -8.2004  -6.6519  -5.6273  -3.6747  -2.4035   4.9074   5.4625
    10.7342  12.2122  13.5616  13.7590

          k = 0.0807-0.2330 0.1160 (  2906 PWs)   bands (ev):

   -24.7800  -8.1588  -6.1652  -4.9974  -4.4204  -3.4236   9.3458  10.0253
    10.5153  11.8224  13.5327  14.3094

          k = 0.0807-0.2330 0.3479 (  2920 PWs)   bands (ev):

   -24.4139  -7.7433  -6.3938  -5.8432  -3.9530  -2.9211   6.7431   8.8807
    10.1169  10.9321  13.1967  14.1979

          k = 0.0807-0.2330 0.5799 (  2910 PWs)   bands (ev):

   -24.0090  -8.5480  -6.1046  -5.5102  -3.6765  -2.0988   4.2360   6.1861
    11.0713  11.4890  12.7334  13.8569

          k = 0.0807-0.0466 0.1160 (  2921 PWs)   bands (ev):

   -24.8233  -7.3908  -5.9944  -5.6779  -4.8206  -2.9892   8.9373   9.1400
    10.1220  12.0397  14.1809  14.5537

          k = 0.0807-0.0466 0.3479 (  2905 PWs)   bands (ev):

   -24.4510  -7.5915  -5.9794  -5.7203  -4.7722  -2.4404   6.5177   9.3520
     9.6588  10.1929  13.4915  14.1890

          k = 0.0807-0.0466 0.5799 (  2899 PWs)   bands (ev):

   -24.0384  -8.7645  -5.5650  -5.4316  -3.8269  -1.9673   3.9659   6.7652
    10.8869  11.6855  12.3419  13.1730

          k = 0.2422 0.4194 0.1160 (  2900 PWs)   bands (ev):

   -24.7039  -8.5708  -7.2664  -4.8079  -3.5123  -3.1709   8.9542  10.6967
    11.1636  12.2572  12.9771  14.9152

          k = 0.2422 0.4194 0.3479 (  2898 PWs)   bands (ev):

   -24.3487  -7.8130  -6.7072  -6.4475  -3.3384  -2.9405   7.2806   8.0410
     9.9103  12.2185  13.3880  14.4941

          k = 0.2422 0.4194 0.5799 (  2902 PWs)   bands (ev):

   -23.9573  -8.0831  -6.6068  -5.9725  -3.5382  -2.5232   4.9733   5.4263
    11.0007  12.1038  13.5908  13.8106

          k = 0.2422 0.6059 0.1160 (  2905 PWs)   bands (ev):

   -24.6920  -8.4793  -7.6182  -4.7863  -3.4491  -2.9732   8.7610  10.7693
    11.0452  12.5045  13.0368  15.1117

          k = 0.2422 0.6059 0.3479 (  2894 PWs)   bands (ev):

   -24.3385  -7.7136  -6.9623  -6.4662  -3.2267  -2.9257   7.5599   7.8052
     9.7529  12.5349  13.2059  14.6299

          k = 0.2422 0.6059 0.5799 (  2894 PWs)   bands (ev):

   -23.9492  -8.0002  -6.5988  -6.1443  -3.3711  -2.7632   5.2295   5.2619
    11.0388  12.5079  13.3230  13.6796

          k = 0.2422-0.3262 0.1160 (  2911 PWs)   bands (ev):

   -24.7244  -8.5858  -6.7809  -4.8744  -3.8247  -3.2623   9.1956  10.5291
    11.2816  11.7750  13.0926  14.6895

          k = 0.2422-0.3262 0.3479 (  2903 PWs)   bands (ev):

   -24.3662  -7.8487  -6.6107  -6.2112  -3.6405  -2.8237   6.9671   8.3042
     9.9916  11.8208  13.6043  14.4263

          k = 0.2422-0.3262 0.5799 (  2905 PWs)   bands (ev):

   -23.9712  -8.2139  -6.5563  -5.7498  -3.7190  -2.2161   4.6307   5.6430
    10.7616  11.9217  13.7006  14.0003

          k = 0.2422-0.1398 0.1160 (  2913 PWs)   bands (ev):

   -24.7683  -8.3042  -6.0950  -5.1687  -4.3190  -3.3141   9.3979   9.8023
    11.0076  11.6055  13.4383  14.5685

          k = 0.2422-0.1398 0.3479 (  2901 PWs)   bands (ev):

   -24.4038  -7.7294  -6.5757  -5.8022  -4.0890  -2.6578   6.5980   8.7465
     9.7530  11.3863  13.4148  14.6260

          k = 0.2422-0.1398 0.5799 (  2905 PWs)   bands (ev):

   -24.0010  -8.4726  -6.2567  -5.4940  -3.8480  -1.8873   4.1581   6.0821
    10.4370  11.9452  13.3866  13.9139

          k = 0.4036 0.6991 0.1160 (  2903 PWs)   bands (ev):

   -24.6963  -8.7084  -7.1268  -4.8011  -3.9446  -2.7692   9.0724  10.7062
    11.1195  12.0235  13.3256  14.8608

          k = 0.4036 0.6991 0.3479 (  2886 PWs)   bands (ev):

   -24.3421  -7.9083  -6.6633  -6.3900  -3.5780  -2.7588   7.4767   7.8602
     9.9639  12.1238  13.5120  14.5381

          k = 0.4036 0.6991 0.5799 (  2899 PWs)   bands (ev):

   -23.9522  -8.0246  -6.7366  -5.8983  -3.6163  -2.5236   5.0585   5.3589
    10.7597  12.5127  13.5680  13.8089

          k = 0.4036-0.2330 0.1160 (  2904 PWs)   bands (ev):

   -24.7124  -8.8415  -6.1941  -5.1049  -4.5259  -2.7202  10.0017  10.0073
    11.1649  11.4880  13.8243  14.2993

          k = 0.4036-0.2330 0.3479 (  2894 PWs)   bands (ev):

   -24.3560  -8.0171  -6.6214  -5.8858  -4.1269  -2.5572   7.0459   8.1722
    10.1043  11.6160  14.0858  14.4334

          k = 0.4036-0.2330 0.5799 (  2902 PWs)   bands (ev):

   -23.9631  -8.1194  -6.7911  -5.5573  -3.9546  -2.1097   4.6403   5.5815
    10.2881  12.3982  13.9548  14.1623

          k =-0.0807-0.3262 0.1160 (  2905 PWs)   bands (ev):

   -24.7480  -8.5019  -6.3092  -4.8766  -4.2336  -3.3913   9.5751  10.4203
    10.9604  11.6554  13.2048  14.2213

          k =-0.0807-0.3262 0.3479 (  2913 PWs)   bands (ev):

   -24.3864  -7.8899  -6.4612  -5.9473  -3.5123  -3.2779   7.0212   8.5393
    10.3552  11.3840  13.2579  13.9450

          k =-0.0807-0.3262 0.5799 (  2905 PWs)   bands (ev):

   -23.9872  -8.3729  -6.4109  -5.5718  -3.6374  -2.2750   4.5595   5.8019
    11.0040  11.6693  13.1749  13.9185

          k =-0.0807-0.5127 0.1160 (  2897 PWs)   bands (ev):

   -24.7037  -8.8517  -6.5317  -4.8322  -4.4717  -2.7173   9.6461  10.5637
    11.2703  11.4635  13.5499  14.3948

          k =-0.0807-0.5127 0.3479 (  2889 PWs)   bands (ev):

   -24.3485  -8.0553  -6.5296  -6.0850  -3.8632  -2.7836   7.5135   7.8982
    10.2716  11.7996  13.6482  14.1837

          k =-0.0807-0.5127 0.5799 (  2903 PWs)   bands (ev):

   -23.9572  -8.0800  -6.7972  -5.6605  -3.7718  -2.3959   5.0272   5.3414
    10.5344  12.5912  13.6252  13.8736

          k =-0.0807 0.4194 0.1160 (  2905 PWs)   bands (ev):

   -24.7200  -8.7219  -6.4572  -4.9714  -4.2928  -2.9095   9.4719  10.3570
    11.1824  11.6209  13.4846  14.5425

          k =-0.0807 0.4194 0.3479 (  2901 PWs)   bands (ev):

   -24.3625  -7.9261  -6.6450  -6.0096  -3.9554  -2.6119   6.9356   8.2628
    10.0029  11.6922  13.8920  14.5398

          k =-0.0807 0.4194 0.5799 (  2903 PWs)   bands (ev):

   -23.9682  -8.1742  -6.6824  -5.6262  -3.8760  -2.0987   4.5747   5.6401
    10.4178  12.2079  13.9047  14.1046

          k =-0.0807 0.2330 0.1160 (  2906 PWs)   bands (ev):

   -24.7800  -8.1479  -6.1683  -5.1010  -4.3529  -3.3793   9.2401   9.8676
    10.7369  11.7395  13.4812  14.5420

          k =-0.0807 0.2330 0.3479 (  2920 PWs)   bands (ev):

   -24.4139  -7.6997  -6.4692  -5.8348  -4.0687  -2.7320   6.6160   8.8710
     9.8032  11.1709  13.2850  14.4732

          k =-0.0807 0.2330 0.5799 (  2910 PWs)   bands (ev):

   -24.0090  -8.5417  -6.1096  -5.5083  -3.7737  -1.9532   4.1418   6.2016
    10.6518  11.7886  13.0277  13.8315

          k =-0.0807 0.0466 0.1160 (  2921 PWs)   bands (ev):

   -24.8233  -7.3955  -5.9962  -5.6558  -4.8338  -2.9942   9.0285   9.0736
    10.1023  12.0494  14.3241  14.3859

          k =-0.0807 0.0466 0.3479 (  2905 PWs)   bands (ev):

   -24.4510  -7.5981  -5.9630  -5.7242  -4.7661  -2.4607   6.5375   9.3321
     9.8933   9.9840  13.5006  14.1327

          k =-0.0807 0.0466 0.5799 (  2899 PWs)   bands (ev):

   -24.0384  -8.7653  -5.5643  -5.4337  -3.8093  -1.9914   3.9792   6.7651
    11.0295  11.5643  12.2498  13.2217

          k =-0.2422-0.6059 0.1160 (  2905 PWs)   bands (ev):

   -24.6920  -8.4771  -7.6208  -4.7889  -3.4597  -2.9570   8.7475  10.7945
    11.0085  12.4836  13.0738  15.1299

          k =-0.2422-0.6059 0.3479 (  2894 PWs)   bands (ev):

   -24.3385  -7.6999  -6.9871  -6.4576  -3.2851  -2.8574   7.4836   7.8603
     9.7414  12.4718  13.2900  14.6681

          k =-0.2422-0.6059 0.5799 (  2894 PWs)   bands (ev):

   -23.9492  -7.9978  -6.6030  -6.1433  -3.4012  -2.7265   5.1324   5.3495
    11.0111  12.4853  13.4128  13.6635

          k =-0.2422 0.3262 0.1160 (  2911 PWs)   bands (ev):

   -24.7244  -8.5937  -6.7717  -4.8384  -3.7915  -3.3489   9.2840  10.5667
    11.4081  11.7050  12.9785  14.5667

          k =-0.2422 0.3262 0.3479 (  2903 PWs)   bands (ev):

   -24.3662  -7.8916  -6.4904  -6.2693  -3.3550  -3.1761   7.1316   8.2728
    10.1399  11.8667  13.3849  14.1542

          k =-0.2422 0.3262 0.5799 (  2905 PWs)   bands (ev):

   -23.9712  -8.2245  -6.5432  -5.7500  -3.6231  -2.3578   4.7624   5.5787
    10.9936  11.7995  13.5581  13.8768

          k =-0.2422 0.1398 0.1160 (  2913 PWs)   bands (ev):

   -24.7683  -8.3251  -6.0983  -4.9253  -4.4719  -3.4169   9.6228  10.2191
    10.4738  11.8027  13.5189  14.0558

          k =-0.2422 0.1398 0.3479 (  2901 PWs)   bands (ev):

   -24.4038  -7.8252  -6.4204  -5.8096  -3.7753  -3.1370   6.8973   8.7631
    10.4775  10.8788  13.1636  13.9871

          k =-0.2422 0.1398 0.5799 (  2905 PWs)   bands (ev):

   -24.0010  -8.4886  -6.2420  -5.4981  -3.6305  -2.2152   4.3846   6.0326
    11.1329  11.5374  12.7518  13.9111

          k =-0.4036 0.2330 0.1160 (  2904 PWs)   bands (ev):

   -24.7124  -8.8535  -6.1957  -4.8714  -4.7018  -2.7988  10.1527  10.3777
    11.0233  11.4372  13.6764  14.0039

          k =-0.4036 0.2330 0.3479 (  2894 PWs)   bands (ev):

   -24.3560  -8.0838  -6.5055  -5.8893  -3.9298  -2.9001   7.4813   8.0207
    10.4726  11.6390  13.6906  13.7908

          k =-0.4036 0.2330 0.5799 (  2902 PWs)   bands (ev):

   -23.9631  -8.1466  -6.7599  -5.5593  -3.7803  -2.3778   5.0024   5.3619
    10.5128  12.5510  13.6766  13.7129

!    total energy              =    -139.52356531 Ry
     Harris-Foulkes estimate   =    -139.52356531 Ry
     estimated scf accuracy    <          2.0E-10 Ry

     The total energy is the sum of the following terms:

     one-electron contribution =      -2.55165050 Ry
     hartree contribution      =      19.82302989 Ry
     xc contribution           =     -26.93656931 Ry
     ewald contribution        =    -129.85837540 Ry

     convergence has been achieved in  11 iterations

     Forces acting on atoms (Ry/au):

     atom    1 type  3   force =    -0.00000000   -0.00000000   -0.00003690
     atom    2 type  2   force =    -0.00000000   -0.00000000    0.00007547
     atom    3 type  2   force =     0.00000000    0.00000000   -0.00005794
     atom    4 type  1   force =    -0.00000000   -0.00000000    0.00004508
     atom    5 type  1   force =     0.00000000    0.00000000   -0.00002571

     Total force =     0.000114     Total SCF correction =     0.000025
     SCF correction compared to forces is large: reduce conv_thr to get better values


     entering subroutine stress ...

          total   stress  (Ry/bohr**3)                   (kbar)     P= 1504.78
   0.01024776  -0.00000000  -0.00000000       1507.50     -0.00     -0.00
  -0.00000000   0.01024776  -0.00000000         -0.00   1507.50     -0.00
  -0.00000000  -0.00000000   0.01019233         -0.00     -0.00   1499.34


     Writing output data file CaOH2_ambient.save

     init_run     :     34.04s CPU     34.90s WALL (       2 calls)
     electrons    :    752.13s CPU    794.24s WALL (      10 calls)
     update_pot   :    227.15s CPU    239.28s WALL (       8 calls)
     forces       :     89.38s CPU     91.72s WALL (      10 calls)
     stress       :    200.53s CPU    207.62s WALL (      10 calls)

     Called by init_run:
     wfcinit      :      8.38s CPU      8.89s WALL (       2 calls)
     potinit      :      9.86s CPU      9.91s WALL (       2 calls)

     Called by electrons:
     c_bands      :    643.52s CPU    679.18s WALL (      83 calls)
     sum_band     :     97.15s CPU    102.83s WALL (      83 calls)
     v_of_rho     :      6.57s CPU      6.80s WALL (      93 calls)
     mix_rho      :      5.28s CPU      5.62s WALL (      83 calls)

     Called by c_bands:
     init_us_2    :     23.41s CPU     26.87s WALL (   11844 calls)
     cegterg      :    630.09s CPU    659.76s WALL (    5229 calls)

     Called by *egterg:
     h_psi        :    480.13s CPU    502.04s WALL (   16207 calls)
     g_psi        :      4.87s CPU      5.23s WALL (   10852 calls)
     cdiaghg      :      7.97s CPU      8.41s WALL (   15577 calls)

     Called by h_psi:
     add_vuspsi   :     13.77s CPU     14.40s WALL (   16207 calls)

     General routines
     calbec       :     15.29s CPU     16.02s WALL (   17467 calls)
     fft          :      1.86s CPU      1.92s WALL (    1101 calls)
     ffts         :      2.38s CPU      2.44s WALL (    1389 calls)
     fftw         :    469.98s CPU    490.95s WALL (  408904 calls)
     davcio       :      3.58s CPU      8.19s WALL (   17073 calls)


     PWSCF        : 21m44.94s CPU    22m49.67s WALL


   This run was terminated on:  14:40:21  19Apr2014            

=------------------------------------------------------------------------------=
   JOB DONE.
=------------------------------------------------------------------------------=
