
     Program PWSCF v.5.0.2 (svn rev. 9392) starts on 19Apr2014 at  1:29:29 

     This program is part of the open-source Quantum ESPRESSO suite
     for quantum simulation of materials; please cite
         "P. Giannozzi et al., J. Phys.:Condens. Matter 21 395502 (2009);
          URL http://www.quantum-espresso.org", 
     in publications or presentations arising from this work. More details at
     http://www.quantum-espresso.org/quote.php

     Serial version

     Current dimensions of program PWSCF are:
     Max number of different atomic species (ntypx) = 10
     Max number of k-points (npk) =  40000
     Max angular momentum in pseudopotentials (lmaxx) =  3
     Waiting for input...
     Reading input from standard input

     G-vector sticks info
     --------------------
     sticks:   dense  smooth     PW     G-vecs:    dense   smooth      PW
     Sum        1027    1027    367                34401    34401    7669



     bravais-lattice index     =            4
     lattice parameter (alat)  =       6.7864  a.u.
     unit-cell volume          =     356.1278 (a.u.)^3
     number of atoms/cell      =            5
     number of atomic types    =            3
     number of electrons       =        24.00
     number of Kohn-Sham states=           12
     kinetic-energy cutoff     =     100.0000  Ry
     charge density cutoff     =     320.0000  Ry
     convergence threshold     =      1.0E-06
     mixing beta               =       0.3000
     number of iterations used =           16  local-TF  mixing
     Exchange-correlation      = PBE ( 1 4 3 4 0)
     EXX-fraction              =        0.00
     nstep                     =           50


     celldm(1)=   6.786400  celldm(2)=   0.000000  celldm(3)=   1.315700
     celldm(4)=   0.000000  celldm(5)=   0.000000  celldm(6)=   0.000000

     crystal axes: (cart. coord. in units of alat)
               a(1) = (   1.000000   0.000000   0.000000 )  
               a(2) = (  -0.500000   0.866025   0.000000 )  
               a(3) = (   0.000000   0.000000   1.315700 )  

     reciprocal axes: (cart. coord. in units 2 pi/alat)
               b(1) = (  1.000000  0.577350 -0.000000 )  
               b(2) = (  0.000000  1.154701  0.000000 )  
               b(3) = (  0.000000 -0.000000  0.760052 )  


     PseudoPot. # 1 for H  read from file:
     /home/ilia/espresso/pseudo/H.pbe-sp-mt.ncpp
     MD5 check sum: 7a641936b52ccecd26bd1ad87cca5aed
     Pseudo is Norm-conserving, Zval =  1.0
     Generated by old ld1 code (numerical format)
     Using radial grid of 1076 points,  0 beta functions with: 

     PseudoPot. # 2 for O  read from file:
     /home/ilia/espresso/pseudo/O.pbe-sp-mt.ncpp
     MD5 check sum: 8a3d23d410d2f3ebfd0a39faacc72cbb
     Pseudo is Norm-conserving, Zval =  6.0
     Generated by old ld1 code (numerical format)
     Using radial grid of 1130 points,  1 beta functions with: 
                l(1) =   1

     PseudoPot. # 3 for Ca read from file:
     /home/ilia/espresso/pseudo/Ca.pbe-sp-mt_ion2.ncpp
     MD5 check sum: 4bcd670d05521f7b178fdf0a334578ab
     Pseudo is Norm-conserving, Zval = 10.0
     Generated by old ld1 code (numerical format)
     Using radial grid of 1153 points,  1 beta functions with: 
                l(1) =   1

     atomic species   valence    mass     pseudopotential
        H              1.00     1.00700     H ( 1.00)
        O              6.00    16.00000     O ( 1.00)
        Ca            10.00    40.07800     Ca( 1.00)

     12 Sym. Ops., with inversion, found



   Cartesian axes

     site n.     atom                  positions (alat units)
         1           Ca  tau(   1) = (   0.0000000   0.0000000   0.0000000  )
         2           O   tau(   2) = (   0.0000000   0.5773503   0.3065581  )
         3           O   tau(   3) = (   0.5000000   0.2886751   1.0091419  )
         4           H   tau(   4) = (   0.0000000   0.5773503   0.5710138  )
         5           H   tau(   5) = (   0.5000000   0.2886751   0.7446862  )

     number of k points=    63
                       cart. coord. in units 2pi/alat
        k(    1) = (   0.0833333   0.1443376   0.0633376), wk =   0.0370370
        k(    2) = (   0.0833333   0.1443376   0.1900129), wk =   0.0370370
        k(    3) = (   0.0833333   0.1443376   0.3166882), wk =   0.0370370
        k(    4) = (   0.0833333   0.3367877   0.0633376), wk =   0.0370370
        k(    5) = (   0.0833333   0.3367877   0.1900129), wk =   0.0370370
        k(    6) = (   0.0833333   0.3367877   0.3166882), wk =   0.0370370
        k(    7) = (   0.0833333   0.5292377   0.0633376), wk =   0.0370370
        k(    8) = (   0.0833333   0.5292377   0.1900129), wk =   0.0370370
        k(    9) = (   0.0833333   0.5292377   0.3166882), wk =   0.0370370
        k(   10) = (   0.0833333  -0.4330127   0.0633376), wk =   0.0370370
        k(   11) = (   0.0833333  -0.4330127   0.1900129), wk =   0.0370370
        k(   12) = (   0.0833333  -0.4330127   0.3166882), wk =   0.0370370
        k(   13) = (   0.0833333  -0.2405626   0.0633376), wk =   0.0370370
        k(   14) = (   0.0833333  -0.2405626   0.1900129), wk =   0.0370370
        k(   15) = (   0.0833333  -0.2405626   0.3166882), wk =   0.0370370
        k(   16) = (   0.0833333  -0.0481125   0.0633376), wk =   0.0185185
        k(   17) = (   0.0833333  -0.0481125   0.1900129), wk =   0.0185185
        k(   18) = (   0.0833333  -0.0481125   0.3166882), wk =   0.0185185
        k(   19) = (   0.2500000   0.4330127   0.0633376), wk =   0.0370370
        k(   20) = (   0.2500000   0.4330127   0.1900129), wk =   0.0370370
        k(   21) = (   0.2500000   0.4330127   0.3166882), wk =   0.0370370
        k(   22) = (   0.2500000   0.6254628   0.0633376), wk =   0.0370370
        k(   23) = (   0.2500000   0.6254628   0.1900129), wk =   0.0370370
        k(   24) = (   0.2500000   0.6254628   0.3166882), wk =   0.0370370
        k(   25) = (   0.2500000  -0.3367877   0.0633376), wk =   0.0370370
        k(   26) = (   0.2500000  -0.3367877   0.1900129), wk =   0.0370370
        k(   27) = (   0.2500000  -0.3367877   0.3166882), wk =   0.0370370
        k(   28) = (   0.2500000  -0.1443376   0.0633376), wk =   0.0185185
        k(   29) = (   0.2500000  -0.1443376   0.1900129), wk =   0.0185185
        k(   30) = (   0.2500000  -0.1443376   0.3166882), wk =   0.0185185
        k(   31) = (   0.4166667   0.7216878   0.0633376), wk =   0.0370370
        k(   32) = (   0.4166667   0.7216878   0.1900129), wk =   0.0370370
        k(   33) = (   0.4166667   0.7216878   0.3166882), wk =   0.0370370
        k(   34) = (   0.4166667  -0.2405626   0.0633376), wk =   0.0185185
        k(   35) = (   0.4166667  -0.2405626   0.1900129), wk =   0.0185185
        k(   36) = (   0.4166667  -0.2405626   0.3166882), wk =   0.0185185
        k(   37) = (  -0.0833333   0.3367877  -0.0633376), wk =   0.0370370
        k(   38) = (  -0.0833333   0.3367877  -0.1900129), wk =   0.0370370
        k(   39) = (  -0.0833333   0.3367877  -0.3166882), wk =   0.0370370
        k(   40) = (  -0.0833333   0.5292377  -0.0633376), wk =   0.0370370
        k(   41) = (  -0.0833333   0.5292377  -0.1900129), wk =   0.0370370
        k(   42) = (  -0.0833333   0.5292377  -0.3166882), wk =   0.0370370
        k(   43) = (  -0.0833333  -0.4330127  -0.0633376), wk =   0.0370370
        k(   44) = (  -0.0833333  -0.4330127  -0.1900129), wk =   0.0370370
        k(   45) = (  -0.0833333  -0.4330127  -0.3166882), wk =   0.0370370
        k(   46) = (  -0.0833333  -0.2405626  -0.0633376), wk =   0.0370370
        k(   47) = (  -0.0833333  -0.2405626  -0.1900129), wk =   0.0370370
        k(   48) = (  -0.0833333  -0.2405626  -0.3166882), wk =   0.0370370
        k(   49) = (  -0.0833333  -0.0481125  -0.0633376), wk =   0.0185185
        k(   50) = (  -0.0833333  -0.0481125  -0.1900129), wk =   0.0185185
        k(   51) = (  -0.0833333  -0.0481125  -0.3166882), wk =   0.0185185
        k(   52) = (  -0.2500000   0.6254628  -0.0633376), wk =   0.0370370
        k(   53) = (  -0.2500000   0.6254628  -0.1900129), wk =   0.0370370
        k(   54) = (  -0.2500000   0.6254628  -0.3166882), wk =   0.0370370
        k(   55) = (  -0.2500000  -0.3367877  -0.0633376), wk =   0.0370370
        k(   56) = (  -0.2500000  -0.3367877  -0.1900129), wk =   0.0370370
        k(   57) = (  -0.2500000  -0.3367877  -0.3166882), wk =   0.0370370
        k(   58) = (  -0.2500000  -0.1443376  -0.0633376), wk =   0.0185185
        k(   59) = (  -0.2500000  -0.1443376  -0.1900129), wk =   0.0185185
        k(   60) = (  -0.2500000  -0.1443376  -0.3166882), wk =   0.0185185
        k(   61) = (  -0.4166667  -0.2405626  -0.0633376), wk =   0.0185185
        k(   62) = (  -0.4166667  -0.2405626  -0.1900129), wk =   0.0185185
        k(   63) = (  -0.4166667  -0.2405626  -0.3166882), wk =   0.0185185

     Dense  grid:    34401 G-vectors     FFT dimensions: (  40,  40,  54)

     Largest allocated arrays     est. size (Mb)     dimensions
        Kohn-Sham Wavefunctions         1.10 Mb     (   6029,   12)
        NL pseudopotentials             0.83 Mb     (   6029,    9)
        Each V/rho on FFT grid          1.32 Mb     (  86400)
        Each G-vector array             0.26 Mb     (  34401)
        G-vector shells                 0.26 Mb     (  34401)
     Largest temporary arrays     est. size (Mb)     dimensions
        Auxiliary wavefunctions         4.42 Mb     (   6029,   48)
        Each subspace H/S matrix        0.04 Mb     (  48,  48)
        Each <psi_i|beta_j> matrix      0.00 Mb     (      9,   12)
        Arrays for rho mixing          21.09 Mb     (  86400,  16)

     Initial potential from superposition of free atoms

     starting charge   21.99998, renormalised to   24.00000
     Starting wfc are   14 randomized atomic wfcs

     total cpu time spent up to now is       52.6 secs

     per-process dynamical memory:    20.2 Mb

     Self-consistent Calculation

     iteration #  1     ecut=   100.00 Ry     beta=0.30
     Davidson diagonalization with overlap
     ethr =  1.00E-02,  avg # of iterations =  2.0

     total cpu time spent up to now is       75.4 secs

     total energy              =    -140.22488747 Ry
     Harris-Foulkes estimate   =    -140.30918376 Ry
     estimated scf accuracy    <       0.46285438 Ry

     iteration #  2     ecut=   100.00 Ry     beta=0.30
     Davidson diagonalization with overlap
     ethr =  1.93E-03,  avg # of iterations =  1.0

     total cpu time spent up to now is       91.6 secs

     total energy              =    -140.05196353 Ry
     Harris-Foulkes estimate   =    -140.23108251 Ry
     estimated scf accuracy    <       0.29014990 Ry

     iteration #  3     ecut=   100.00 Ry     beta=0.30
     Davidson diagonalization with overlap
     ethr =  1.21E-03,  avg # of iterations =  2.0

     total cpu time spent up to now is      111.2 secs

     total energy              =    -140.09816804 Ry
     Harris-Foulkes estimate   =    -140.09951753 Ry
     estimated scf accuracy    <       0.01159575 Ry

     iteration #  4     ecut=   100.00 Ry     beta=0.30
     Davidson diagonalization with overlap
     ethr =  4.83E-05,  avg # of iterations =  2.0

     total cpu time spent up to now is      130.0 secs

     total energy              =    -140.09822994 Ry
     Harris-Foulkes estimate   =    -140.09923559 Ry
     estimated scf accuracy    <       0.00564318 Ry

     iteration #  5     ecut=   100.00 Ry     beta=0.30
     Davidson diagonalization with overlap
     ethr =  2.35E-05,  avg # of iterations =  1.0

     total cpu time spent up to now is      146.5 secs

     total energy              =    -140.09776567 Ry
     Harris-Foulkes estimate   =    -140.09835720 Ry
     estimated scf accuracy    <       0.00145533 Ry

     iteration #  6     ecut=   100.00 Ry     beta=0.30
     Davidson diagonalization with overlap
     ethr =  6.06E-06,  avg # of iterations =  2.0

     total cpu time spent up to now is      168.0 secs

     total energy              =    -140.09797687 Ry
     Harris-Foulkes estimate   =    -140.09795961 Ry
     estimated scf accuracy    <       0.00014859 Ry

     iteration #  7     ecut=   100.00 Ry     beta=0.30
     Davidson diagonalization with overlap
     ethr =  6.19E-07,  avg # of iterations =  2.0

     total cpu time spent up to now is      186.2 secs

     total energy              =    -140.09798046 Ry
     Harris-Foulkes estimate   =    -140.09798947 Ry
     estimated scf accuracy    <       0.00005700 Ry

     iteration #  8     ecut=   100.00 Ry     beta=0.30
     Davidson diagonalization with overlap
     ethr =  2.37E-07,  avg # of iterations =  2.0

     total cpu time spent up to now is      205.9 secs

     total energy              =    -140.09797894 Ry
     Harris-Foulkes estimate   =    -140.09798619 Ry
     estimated scf accuracy    <       0.00002106 Ry

     iteration #  9     ecut=   100.00 Ry     beta=0.30
     Davidson diagonalization with overlap
     ethr =  8.77E-08,  avg # of iterations =  2.0

     total cpu time spent up to now is      226.6 secs

     total energy              =    -140.09798125 Ry
     Harris-Foulkes estimate   =    -140.09798143 Ry
     estimated scf accuracy    <       0.00000137 Ry

     iteration # 10     ecut=   100.00 Ry     beta=0.30
     Davidson diagonalization with overlap
     ethr =  5.69E-09,  avg # of iterations =  3.0

     total cpu time spent up to now is      251.1 secs

     total energy              =    -140.09798139 Ry
     Harris-Foulkes estimate   =    -140.09798209 Ry
     estimated scf accuracy    <       0.00000191 Ry

     iteration # 11     ecut=   100.00 Ry     beta=0.30
     Davidson diagonalization with overlap
     ethr =  5.69E-09,  avg # of iterations =  2.0

     total cpu time spent up to now is      272.4 secs

     End of self-consistent calculation

          k = 0.0833 0.1443 0.0633 (  6010 PWs)   bands (ev):

   -33.8063 -15.6452 -15.3588 -15.1562 -13.7619 -12.9561  -1.9587  -0.2106
     2.3608   2.4292   2.9928   3.3599

          k = 0.0833 0.1443 0.1900 (  6001 PWs)   bands (ev):

   -33.8061 -15.6892 -15.3415 -15.1559 -13.6411 -13.0548  -1.7960  -0.5387
     2.3968   2.5587   2.9938   3.2920

          k = 0.0833 0.1443 0.3167 (  6026 PWs)   bands (ev):

   -33.8060 -15.7278 -15.3285 -15.1555 -13.4445 -13.2306  -1.4952  -0.9887
     2.5084   2.6167   3.0086   3.1866

          k = 0.0833 0.3368 0.0633 (  6015 PWs)   bands (ev):

   -33.7873 -15.7298 -15.4863 -15.2074 -13.4706 -13.0732  -1.5761  -0.5128
     2.0637   2.4467   2.5560   3.2277

          k = 0.0833 0.3368 0.1900 (  6011 PWs)   bands (ev):

   -33.7872 -15.7056 -15.5122 -15.2067 -13.5235 -13.0166  -1.5597  -0.7435
     2.2554   2.4303   2.6765   3.2128

          k = 0.0833 0.3368 0.3167 (  6013 PWs)   bands (ev):

   -33.7870 -15.6983 -15.5238 -15.2062 -13.5109 -13.0276  -1.4292  -1.0380
     2.4340   2.5366   2.6944   3.1064

          k = 0.0833 0.5292 0.0633 (  6018 PWs)   bands (ev):

   -33.7733 -15.9400 -15.3345 -15.2608 -13.4910 -13.0035  -1.1571  -0.8306
     1.5589   2.5242   2.5865   3.0708

          k = 0.0833 0.5292 0.1900 (  6017 PWs)   bands (ev):

   -33.7732 -15.9230 -15.3415 -15.2600 -13.5711 -12.9350  -1.2997  -0.8879
     1.8193   2.5041   2.6285   3.0692

          k = 0.0833 0.5292 0.3167 (  6023 PWs)   bands (ev):

   -33.7731 -15.9090 -15.3459 -15.2598 -13.6190 -12.8998  -1.3841  -0.9723
     2.1432   2.4933   2.5839   3.0354

          k = 0.0833-0.4330 0.0633 (  6013 PWs)   bands (ev):

   -33.7785 -15.8749 -15.3927 -15.2360 -13.3747 -13.1334  -1.2775  -0.7213
     1.7418   2.4776   2.6179   3.0442

          k = 0.0833-0.4330 0.1900 (  6017 PWs)   bands (ev):

   -33.7783 -15.8641 -15.4000 -15.2355 -13.4204 -13.0949  -1.2257  -0.9585
     2.0068   2.4691   2.7457   2.8993

          k = 0.0833-0.4330 0.3167 (  6018 PWs)   bands (ev):

   -33.7782 -15.8432 -15.4143 -15.2347 -13.5278 -12.9928  -1.2685  -1.1131
     2.3289   2.4652   2.6516   2.9571

          k = 0.0833-0.2406 0.0633 (  6004 PWs)   bands (ev):

   -33.7975 -15.6105 -15.5151 -15.1793 -13.5553 -13.0625  -1.7688  -0.3537
     2.3237   2.4895   2.6343   3.2415

          k = 0.0833-0.2406 0.1900 (  6000 PWs)   bands (ev):

   -33.7973 -15.6444 -15.4955 -15.1789 -13.4647 -13.1416  -1.6411  -0.6636
     2.3792   2.6443   2.7301   3.1144

          k = 0.0833-0.2406 0.3167 (  6012 PWs)   bands (ev):

   -33.7971 -15.6615 -15.4908 -15.1784 -13.3783 -13.2163  -1.4047  -1.0746
     2.5054   2.6458   2.8561   3.0450

          k = 0.0833-0.0481 0.0633 (  6015 PWs)   bands (ev):

   -33.8114 -15.6802 -15.2255 -15.1441 -13.9033 -12.8989  -2.0604  -0.1285
     2.3612   2.3914   3.2473   3.4330

          k = 0.0833-0.0481 0.1900 (  6009 PWs)   bands (ev):

   -33.8112 -15.7277 -15.2171 -15.1438 -13.7555 -13.0148  -1.8718  -0.4659
     2.4059   2.4987   3.1720   3.3763

          k = 0.0833-0.0481 0.3167 (  6023 PWs)   bands (ev):

   -33.8110 -15.7714 -15.2104 -15.1435 -13.5254 -13.2155  -1.5351  -0.9364
     2.5067   2.5761   3.1242   3.2511

          k = 0.2500 0.4330 0.0633 (  6021 PWs)   bands (ev):

   -33.7734 -15.8053 -15.4849 -15.3065 -13.2720 -13.1603  -1.2029  -0.7815
     1.7916   2.2911   2.4226   3.2047

          k = 0.2500 0.4330 0.1900 (  6009 PWs)   bands (ev):

   -33.7732 -15.7902 -15.4898 -15.3089 -13.3526 -13.0925  -1.2286  -0.9245
     2.0050   2.3521   2.5360   3.0384

          k = 0.2500 0.4330 0.3167 (  6017 PWs)   bands (ev):

   -33.7731 -15.7742 -15.4957 -15.3110 -13.4048 -13.0534  -1.2317  -1.0762
     2.2631   2.4717   2.6442   2.7600

          k = 0.2500 0.6255 0.0633 (  6026 PWs)   bands (ev):

   -33.7696 -15.7968 -15.5330 -15.3127 -13.2675 -13.1339  -1.0539  -0.9041
     1.7199   2.2725   2.3521   3.2258

          k = 0.2500 0.6255 0.1900 (  6022 PWs)   bands (ev):

   -33.7695 -15.7859 -15.5297 -15.3170 -13.3101 -13.1093  -1.1084  -0.9966
     1.9284   2.3376   2.4611   3.0332

          k = 0.2500 0.6255 0.3167 (  5993 PWs)   bands (ev):

   -33.7693 -15.7735 -15.5277 -15.3211 -13.3524 -13.0849  -1.1815  -1.0631
     2.2392   2.4155   2.5631   2.7265

          k = 0.2500-0.3368 0.0633 (  6005 PWs)   bands (ev):

   -33.7798 -15.7865 -15.4649 -15.2650 -13.3606 -13.1242  -1.3905  -0.6439
     1.9110   2.3803   2.4865   3.1953

          k = 0.2500-0.3368 0.1900 (  6026 PWs)   bands (ev):

   -33.7797 -15.7657 -15.4821 -15.2643 -13.4422 -13.0473  -1.4016  -0.8310
     2.1159   2.4043   2.6210   3.0959

          k = 0.2500-0.3368 0.3167 (  6027 PWs)   bands (ev):

   -33.7796 -15.7500 -15.4951 -15.2640 -13.4718 -13.0236  -1.3393  -1.0586
     2.3249   2.5207   2.6846   2.9244

          k = 0.2500-0.1443 0.0633 (  6013 PWs)   bands (ev):

   -33.7938 -15.6488 -15.5183 -15.1784 -13.5532 -13.0384  -1.7184  -0.4080
     2.2365   2.4374   2.6124   3.2889

          k = 0.2500-0.1443 0.1900 (  6007 PWs)   bands (ev):

   -33.7936 -15.6305 -15.5441 -15.1780 -13.5603 -13.0218  -1.6604  -0.6759
     2.4212   2.4226   2.6853   3.3009

          k = 0.2500-0.1443 0.3167 (  6004 PWs)   bands (ev):

   -33.7934 -15.6517 -15.5336 -15.1776 -13.5003 -13.0741  -1.4680  -1.0270
     2.5058   2.5922   2.7025   3.1914

          k = 0.4167 0.7217 0.0633 (  6019 PWs)   bands (ev):

   -33.7710 -15.8885 -15.3913 -15.3175 -13.3865 -13.0555  -1.0626  -0.9034
     1.6158   2.3896   2.4706   3.1533

          k = 0.4167 0.7217 0.1900 (  6008 PWs)   bands (ev):

   -33.7708 -15.8750 -15.3901 -15.3221 -13.4457 -13.0117  -1.1813  -0.9535
     1.8551   2.4151   2.5599   3.0264

          k = 0.4167 0.7217 0.3167 (  6010 PWs)   bands (ev):

   -33.7707 -15.8613 -15.3887 -15.3268 -13.4957 -12.9774  -1.2841  -1.0069
     2.1769   2.4361   2.5916   2.8649

          k = 0.4167-0.2406 0.0633 (  6016 PWs)   bands (ev):

   -33.7761 -15.9300 -15.3555 -15.2124 -13.5245 -12.9950  -1.2718  -0.7433
     1.6029   2.5807   2.6103   3.0687

          k = 0.4167-0.2406 0.1900 (  6020 PWs)   bands (ev):

   -33.7759 -15.9104 -15.3655 -15.2119 -13.6153 -12.9122  -1.3942  -0.8392
     1.8619   2.5133   2.6662   3.1328

          k = 0.4167-0.2406 0.3167 (  6029 PWs)   bands (ev):

   -33.7758 -15.8975 -15.3717 -15.2114 -13.6516 -12.8856  -1.4324  -0.9698
     2.1736   2.5142   2.5998   3.1178

          k =-0.0833 0.3368-0.0633 (  6015 PWs)   bands (ev):

   -33.7873 -15.7450 -15.4740 -15.2076 -13.3661 -13.1793  -1.5263  -0.5314
     2.0636   2.4752   2.5642   3.1269

          k =-0.0833 0.3368-0.1900 (  6011 PWs)   bands (ev):

   -33.7872 -15.7401 -15.4834 -15.2070 -13.3246 -13.2191  -1.4329  -0.8128
     2.2696   2.4975   2.7373   2.9486

          k =-0.0833 0.3368-0.3167 (  6013 PWs)   bands (ev):

   -33.7870 -15.7184 -15.5066 -15.2064 -13.4366 -13.1037  -1.2778  -1.1625
     2.4840   2.5478   2.7311   2.9502

          k =-0.0833 0.5292-0.0633 (  6018 PWs)   bands (ev):

   -33.7733 -15.9432 -15.3322 -15.2614 -13.4603 -13.0350  -1.0815  -0.8907
     1.5582   2.5010   2.6276   3.0251

          k =-0.0833 0.5292-0.1900 (  6017 PWs)   bands (ev):

   -33.7732 -15.9296 -15.3367 -15.2611 -13.5234 -12.9843  -1.1765  -0.9823
     1.8293   2.4962   2.6601   2.9803

          k =-0.0833 0.5292-0.3167 (  6023 PWs)   bands (ev):

   -33.7731 -15.9124 -15.3434 -15.2603 -13.5989 -12.9207  -1.3350  -1.0079
     2.1699   2.4701   2.5922   2.9968

          k =-0.0833-0.4330-0.0633 (  6013 PWs)   bands (ev):

   -33.7785 -15.8658 -15.3989 -15.2356 -13.4704 -13.0357  -1.3587  -0.6750
     1.7404   2.5084   2.5534   3.1460

          k =-0.0833-0.4330-0.1900 (  6017 PWs)   bands (ev):

   -33.7783 -15.8447 -15.4136 -15.2348 -13.5590 -12.9523  -1.4308  -0.8177
     1.9749   2.4663   2.6598   3.1477

          k =-0.0833-0.4330-0.3167 (  6018 PWs)   bands (ev):

   -33.7782 -15.8329 -15.4218 -15.2343 -13.5824 -12.9362  -1.4127  -0.9990
     2.2514   2.5066   2.6368   3.0698

          k =-0.0833-0.2406-0.0633 (  6004 PWs)   bands (ev):

   -33.7975 -15.5860 -15.5380 -15.1792 -13.5834 -13.0339  -1.7866  -0.3500
     2.3824   2.4060   2.6283   3.3046

          k =-0.0833-0.2406-0.1900 (  6000 PWs)   bands (ev):

   -33.7973 -15.6150 -15.5218 -15.1788 -13.5378 -13.0672  -1.6857  -0.6449
     2.4028   2.5787   2.6813   3.2651

          k =-0.0833-0.2406-0.3167 (  6012 PWs)   bands (ev):

   -33.7971 -15.6503 -15.5005 -15.1783 -13.4422 -13.1516  -1.4545  -1.0369
     2.4983   2.6488   2.7830   3.1500

          k =-0.0833-0.0481-0.0633 (  6015 PWs)   bands (ev):

   -33.8114 -15.6809 -15.2252 -15.1441 -13.9007 -12.9014  -2.0582  -0.1285
     2.3527   2.3997   3.2923   3.3820

          k =-0.0833-0.0481-0.1900 (  6009 PWs)   bands (ev):

   -33.8112 -15.7290 -15.2165 -15.1438 -13.7487 -13.0215  -1.8665  -0.4672
     2.4049   2.4988   3.2584   3.2802

          k =-0.0833-0.0481-0.3167 (  6023 PWs)   bands (ev):

   -33.8110 -15.7720 -15.2101 -15.1435 -13.5173 -13.2235  -1.5299  -0.9397
     2.5144   2.5673   3.1781   3.1938

          k =-0.2500 0.6255-0.0633 (  6026 PWs)   bands (ev):

   -33.7696 -15.7957 -15.5340 -15.3126 -13.2815 -13.1197  -1.0715  -0.8889
     1.7186   2.2974   2.3280   3.2307

          k =-0.2500 0.6255-0.1900 (  6022 PWs)   bands (ev):

   -33.7695 -15.7835 -15.5320 -15.3167 -13.3290 -13.0901  -1.1453  -0.9643
     1.9226   2.3660   2.4357   3.0445

          k =-0.2500 0.6255-0.3167 (  5993 PWs)   bands (ev):

   -33.7693 -15.7723 -15.5290 -15.3209 -13.3599 -13.0772  -1.2001  -1.0467
     2.2250   2.4448   2.5397   2.7390

          k =-0.2500-0.3368-0.0633 (  6005 PWs)   bands (ev):

   -33.7798 -15.7924 -15.4599 -15.2654 -13.2506 -13.2352  -1.3596  -0.6598
     1.9165   2.3542   2.5168   3.1565

          k =-0.2500-0.3368-0.1900 (  6026 PWs)   bands (ev):

   -33.7797 -15.7788 -15.4708 -15.2652 -13.3511 -13.1404  -1.3226  -0.8823
     2.1474   2.3746   2.6647   2.9950

          k =-0.2500-0.3368-0.3167 (  6027 PWs)   bands (ev):

   -33.7796 -15.7574 -15.4886 -15.2644 -13.4386 -13.0577  -1.2533  -1.1316
     2.3675   2.4861   2.7617   2.8127

          k =-0.2500-0.1443-0.0633 (  6013 PWs)   bands (ev):

   -33.7938 -15.6750 -15.4957 -15.1784 -13.4770 -13.1161  -1.6737  -0.4200
     2.2084   2.5443   2.5920   3.1586

          k =-0.2500-0.1443-0.1900 (  6007 PWs)   bands (ev):

   -33.7936 -15.6880 -15.4936 -15.1781 -13.3662 -13.2190  -1.5475  -0.7285
     2.3376   2.6805   2.6975   2.9792

          k =-0.2500-0.1443-0.3167 (  6004 PWs)   bands (ev):

   -33.7934 -15.6797 -15.5091 -15.1777 -13.3976 -13.1784  -1.3379  -1.1288
     2.5102   2.6596   2.7441   3.0143

          k =-0.4167-0.2406-0.0633 (  6016 PWs)   bands (ev):

   -33.7761 -15.9368 -15.3520 -15.2124 -13.4584 -13.0626  -1.1711  -0.8110
     1.6009   2.5617   2.6838   2.9545

          k =-0.4167-0.2406-0.1900 (  6020 PWs)   bands (ev):

   -33.7759 -15.9246 -15.3579 -15.2119 -13.5132 -13.0172  -1.1632  -1.0094
     1.8815   2.5497   2.6953   2.9289

          k =-0.4167-0.2406-0.3167 (  6029 PWs)   bands (ev):

   -33.7758 -15.9049 -15.3676 -15.2115 -13.6092 -12.9295  -1.3264  -1.0473
     2.2262   2.5004   2.5869   3.0341

!    total energy              =    -140.09798162 Ry
     Harris-Foulkes estimate   =    -140.09798166 Ry
     estimated scf accuracy    <       0.00000008 Ry

     The total energy is the sum of the following terms:

     one-electron contribution =     -61.80244438 Ry
     hartree contribution      =      40.54927104 Ry
     xc contribution           =     -26.03034424 Ry
     ewald contribution        =     -92.81446403 Ry

     convergence has been achieved in  11 iterations

     Forces acting on atoms (Ry/au):

     atom    1 type  3   force =     0.00000000   -0.00000000    0.00000000
     atom    2 type  2   force =     0.00000000    0.00000000   -0.03558402
     atom    3 type  2   force =     0.00000000   -0.00000000    0.03558402
     atom    4 type  1   force =     0.00000000    0.00000000    0.05742705
     atom    5 type  1   force =     0.00000000   -0.00000000   -0.05742705

     Total force =     0.095541     Total SCF correction =     0.000059


     entering subroutine stress ...

          total   stress  (Ry/bohr**3)                   (kbar)     P=   89.54
   0.00042420   0.00000000   0.00000000         62.40      0.00      0.00
   0.00000000   0.00042420   0.00000000          0.00     62.40      0.00
   0.00000000   0.00000000   0.00097774          0.00      0.00    143.83


     BFGS Geometry Optimization

     number of scf cycles    =   1
     number of bfgs steps    =   0

     enthalpy new            =    -139.3717092357 Ry

     new trust radius        =       0.1524015947 bohr
     new conv_thr            =       0.0000010000 Ry

     new unit-cell volume =    319.24430 a.u.^3 (    47.30712 Ang^3 )

CELL_PARAMETERS (alat=  6.78640000)
   0.959620904   0.000000000   0.000000000
  -0.479810452   0.831056081   0.000000000
   0.000000000   0.000000000   1.280780654

ATOMIC_POSITIONS (crystal)
Ca      -0.000000000  -0.000000000  -0.000000000
O        0.333333333   0.666666667   0.229014722
O        0.666666667   0.333333333   0.770985278
H        0.333333333   0.666666667   0.440431617
H        0.666666667   0.333333333   0.559568383



     Writing output data file CaOH2_ambient.save
     NEW-OLD atomic charge density approx. for the potential
     NEW k-points:
        k(    1) = (   0.0868398   0.1504110   0.0650645), wk =   0.0370370
        k(    2) = (   0.0868398   0.1504110   0.1951935), wk =   0.0370370
        k(    3) = (   0.0868398   0.1504110   0.3253224), wk =   0.0370370
        k(    4) = (   0.0868398   0.3509591   0.0650645), wk =   0.0370370
        k(    5) = (   0.0868398   0.3509591   0.1951935), wk =   0.0370370
        k(    6) = (   0.0868398   0.3509591   0.3253224), wk =   0.0370370
        k(    7) = (   0.0868398   0.5515071   0.0650645), wk =   0.0370370
        k(    8) = (   0.0868398   0.5515071   0.1951935), wk =   0.0370370
        k(    9) = (   0.0868398   0.5515071   0.3253224), wk =   0.0370370
        k(   10) = (   0.0868398  -0.4512331   0.0650645), wk =   0.0370370
        k(   11) = (   0.0868398  -0.4512331   0.1951935), wk =   0.0370370
        k(   12) = (   0.0868398  -0.4512331   0.3253224), wk =   0.0370370
        k(   13) = (   0.0868398  -0.2506850   0.0650645), wk =   0.0370370
        k(   14) = (   0.0868398  -0.2506850   0.1951935), wk =   0.0370370
        k(   15) = (   0.0868398  -0.2506850   0.3253224), wk =   0.0370370
        k(   16) = (   0.0868398  -0.0501370   0.0650645), wk =   0.0185185
        k(   17) = (   0.0868398  -0.0501370   0.1951935), wk =   0.0185185
        k(   18) = (   0.0868398  -0.0501370   0.3253224), wk =   0.0185185
        k(   19) = (   0.2605195   0.4512331   0.0650645), wk =   0.0370370
        k(   20) = (   0.2605195   0.4512331   0.1951935), wk =   0.0370370
        k(   21) = (   0.2605195   0.4512331   0.3253224), wk =   0.0370370
        k(   22) = (   0.2605195   0.6517811   0.0650645), wk =   0.0370370
        k(   23) = (   0.2605195   0.6517811   0.1951935), wk =   0.0370370
        k(   24) = (   0.2605195   0.6517811   0.3253224), wk =   0.0370370
        k(   25) = (   0.2605195  -0.3509591   0.0650645), wk =   0.0370370
        k(   26) = (   0.2605195  -0.3509591   0.1951935), wk =   0.0370370
        k(   27) = (   0.2605195  -0.3509591   0.3253224), wk =   0.0370370
        k(   28) = (   0.2605195  -0.1504110   0.0650645), wk =   0.0185185
        k(   29) = (   0.2605195  -0.1504110   0.1951935), wk =   0.0185185
        k(   30) = (   0.2605195  -0.1504110   0.3253224), wk =   0.0185185
        k(   31) = (   0.4341992   0.7520551   0.0650645), wk =   0.0370370
        k(   32) = (   0.4341992   0.7520551   0.1951935), wk =   0.0370370
        k(   33) = (   0.4341992   0.7520551   0.3253224), wk =   0.0370370
        k(   34) = (   0.4341992  -0.2506850   0.0650645), wk =   0.0185185
        k(   35) = (   0.4341992  -0.2506850   0.1951935), wk =   0.0185185
        k(   36) = (   0.4341992  -0.2506850   0.3253224), wk =   0.0185185
        k(   37) = (  -0.0868398   0.3509591  -0.0650645), wk =   0.0370370
        k(   38) = (  -0.0868398   0.3509591  -0.1951935), wk =   0.0370370
        k(   39) = (  -0.0868398   0.3509591  -0.3253224), wk =   0.0370370
        k(   40) = (  -0.0868398   0.5515071  -0.0650645), wk =   0.0370370
        k(   41) = (  -0.0868398   0.5515071  -0.1951935), wk =   0.0370370
        k(   42) = (  -0.0868398   0.5515071  -0.3253224), wk =   0.0370370
        k(   43) = (  -0.0868398  -0.4512331  -0.0650645), wk =   0.0370370
        k(   44) = (  -0.0868398  -0.4512331  -0.1951935), wk =   0.0370370
        k(   45) = (  -0.0868398  -0.4512331  -0.3253224), wk =   0.0370370
        k(   46) = (  -0.0868398  -0.2506850  -0.0650645), wk =   0.0370370
        k(   47) = (  -0.0868398  -0.2506850  -0.1951935), wk =   0.0370370
        k(   48) = (  -0.0868398  -0.2506850  -0.3253224), wk =   0.0370370
        k(   49) = (  -0.0868398  -0.0501370  -0.0650645), wk =   0.0185185
        k(   50) = (  -0.0868398  -0.0501370  -0.1951935), wk =   0.0185185
        k(   51) = (  -0.0868398  -0.0501370  -0.3253224), wk =   0.0185185
        k(   52) = (  -0.2605195   0.6517811  -0.0650645), wk =   0.0370370
        k(   53) = (  -0.2605195   0.6517811  -0.1951935), wk =   0.0370370
        k(   54) = (  -0.2605195   0.6517811  -0.3253224), wk =   0.0370370
        k(   55) = (  -0.2605195  -0.3509591  -0.0650645), wk =   0.0370370
        k(   56) = (  -0.2605195  -0.3509591  -0.1951935), wk =   0.0370370
        k(   57) = (  -0.2605195  -0.3509591  -0.3253224), wk =   0.0370370
        k(   58) = (  -0.2605195  -0.1504110  -0.0650645), wk =   0.0185185
        k(   59) = (  -0.2605195  -0.1504110  -0.1951935), wk =   0.0185185
        k(   60) = (  -0.2605195  -0.1504110  -0.3253224), wk =   0.0185185
        k(   61) = (  -0.4341992  -0.2506850  -0.0650645), wk =   0.0185185
        k(   62) = (  -0.4341992  -0.2506850  -0.1951935), wk =   0.0185185
        k(   63) = (  -0.4341992  -0.2506850  -0.3253224), wk =   0.0185185
     extrapolated charge   21.45826, renormalised to   24.00000

     total cpu time spent up to now is      398.4 secs

     per-process dynamical memory:    24.8 Mb

     Self-consistent Calculation

     iteration #  1     ecut=   100.00 Ry     beta=0.30
     Davidson diagonalization with overlap
     ethr =  1.00E-06,  avg # of iterations =  6.0

     total cpu time spent up to now is      445.1 secs

     total energy              =    -139.43625852 Ry
     Harris-Foulkes estimate   =    -144.84967249 Ry
     estimated scf accuracy    <       0.91373903 Ry

     iteration #  2     ecut=   100.00 Ry     beta=0.30
     Davidson diagonalization with overlap
     ethr =  3.81E-03,  avg # of iterations =  3.0

     total cpu time spent up to now is      470.1 secs

     total energy              =    -140.08465129 Ry
     Harris-Foulkes estimate   =    -140.10749680 Ry
     estimated scf accuracy    <       0.14404859 Ry

     iteration #  3     ecut=   100.00 Ry     beta=0.30
     Davidson diagonalization with overlap
     ethr =  6.00E-04,  avg # of iterations =  1.0

     total cpu time spent up to now is      487.7 secs

     total energy              =    -140.04235068 Ry
     Harris-Foulkes estimate   =    -140.08796619 Ry
     estimated scf accuracy    <       0.07723277 Ry

     iteration #  4     ecut=   100.00 Ry     beta=0.30
     Davidson diagonalization with overlap
     ethr =  3.22E-04,  avg # of iterations =  2.0

     total cpu time spent up to now is      508.7 secs

     total energy              =    -140.06784536 Ry
     Harris-Foulkes estimate   =    -140.07247502 Ry
     estimated scf accuracy    <       0.01567065 Ry

     iteration #  5     ecut=   100.00 Ry     beta=0.30
     Davidson diagonalization with overlap
     ethr =  6.53E-05,  avg # of iterations =  2.0

     total cpu time spent up to now is      527.9 secs

     total energy              =    -140.06744164 Ry
     Harris-Foulkes estimate   =    -140.06894884 Ry
     estimated scf accuracy    <       0.00295767 Ry

     iteration #  6     ecut=   100.00 Ry     beta=0.30
     Davidson diagonalization with overlap
     ethr =  1.23E-05,  avg # of iterations =  2.0

     total cpu time spent up to now is      549.7 secs

     total energy              =    -140.06816651 Ry
     Harris-Foulkes estimate   =    -140.06819499 Ry
     estimated scf accuracy    <       0.00016657 Ry

     iteration #  7     ecut=   100.00 Ry     beta=0.30
     Davidson diagonalization with overlap
     ethr =  6.94E-07,  avg # of iterations =  1.1

     total cpu time spent up to now is      566.0 secs

     total energy              =    -140.06815333 Ry
     Harris-Foulkes estimate   =    -140.06817288 Ry
     estimated scf accuracy    <       0.00008763 Ry

     iteration #  8     ecut=   100.00 Ry     beta=0.30
     Davidson diagonalization with overlap
     ethr =  3.65E-07,  avg # of iterations =  2.0

     total cpu time spent up to now is      584.0 secs

     total energy              =    -140.06814857 Ry
     Harris-Foulkes estimate   =    -140.06815890 Ry
     estimated scf accuracy    <       0.00002207 Ry

     iteration #  9     ecut=   100.00 Ry     beta=0.30
     Davidson diagonalization with overlap
     ethr =  9.19E-08,  avg # of iterations =  2.0

     total cpu time spent up to now is      604.9 secs

     End of self-consistent calculation

          k = 0.0868 0.1504 0.0651 (  6010 PWs)   bands (ev):

   -32.2770 -14.4303 -14.0725 -13.6241 -12.6207 -11.5921  -1.2314   0.8871
     3.1775   3.2543   3.9521   4.3669

          k = 0.0868 0.1504 0.1952 (  6001 PWs)   bands (ev):

   -32.2766 -14.5227 -14.0164 -13.6236 -12.4712 -11.7134  -1.0267   0.4762
     3.2123   3.4011   3.9665   4.2971

          k = 0.0868 0.1504 0.3253 (  6026 PWs)   bands (ev):

   -32.2762 -14.5946 -13.9795 -13.6230 -12.2397 -11.9181  -0.6365  -0.0943
     3.3276   3.4686   3.9899   4.1876

          k = 0.0868 0.3510 0.0651 (  6015 PWs)   bands (ev):

   -32.2423 -14.6370 -14.1727 -13.7053 -12.2569 -11.7343  -0.7612   0.5108
     2.8986   3.3167   3.4541   4.2027

          k = 0.0868 0.3510 0.1952 (  6011 PWs)   bands (ev):

   -32.2420 -14.5878 -14.2320 -13.7042 -12.3310 -11.6450  -0.7666   0.2327
     3.1250   3.2848   3.6330   4.2008

          k = 0.0868 0.3510 0.3253 (  6013 PWs)   bands (ev):

   -32.2417 -14.5675 -14.2616 -13.7034 -12.3207 -11.6506  -0.6356  -0.0968
     3.2872   3.4330   3.6727   4.0965

          k = 0.0868 0.5515 0.0651 (  6018 PWs)   bands (ev):

   -32.2168 -14.9376 -13.8787 -13.7963 -12.4331 -11.5762  -0.2558   0.1384
     2.3117   3.4197   3.5426   4.0099

          k = 0.0868 0.5515 0.1952 (  6017 PWs)   bands (ev):

   -32.2165 -14.9075 -13.8930 -13.7962 -12.5277 -11.4991  -0.4748   0.1013
     2.6341   3.3752   3.5972   4.0448

          k = 0.0868 0.5515 0.3253 (  6023 PWs)   bands (ev):

   -32.2163 -14.8824 -13.8994 -13.7988 -12.5907 -11.4582  -0.6044   0.0292
     3.0099   3.3439   3.5594   4.0329

          k = 0.0868-0.4512 0.0651 (  6013 PWs)   bands (ev):

   -32.2261 -14.8485 -13.9954 -13.7508 -12.2523 -11.7425  -0.3697   0.2494
     2.5274   3.3562   3.5614   3.9655

          k = 0.0868-0.4512 0.1952 (  6017 PWs)   bands (ev):

   -32.2259 -14.8286 -14.0110 -13.7508 -12.3016 -11.7038  -0.3187  -0.0332
     2.8627   3.3424   3.7032   3.8106

          k = 0.0868-0.4512 0.3253 (  6018 PWs)   bands (ev):

   -32.2256 -14.7898 -14.0454 -13.7494 -12.4215 -11.5851  -0.4748  -0.1302
     3.2257   3.3688   3.5465   3.9456

          k = 0.0868-0.2507 0.0651 (  6004 PWs)   bands (ev):

   -32.2610 -14.4325 -14.2608 -13.6610 -12.3155 -11.7543  -0.9890   0.7050
     3.1814   3.3480   3.5204   4.2192

          k = 0.0868-0.2507 0.1952 (  6000 PWs)   bands (ev):

   -32.2606 -14.4799 -14.2356 -13.6603 -12.1920 -11.8598  -0.8316   0.3163
     3.2332   3.5143   3.6704   4.0826

          k = 0.0868-0.2507 0.3253 (  6012 PWs)   bands (ev):

   -32.2603 -14.4964 -14.2404 -13.6595 -12.0776 -11.9528  -0.5456  -0.1894
     3.3574   3.5314   3.8178   4.0290

          k = 0.0868-0.0501 0.0651 (  6015 PWs)   bands (ev):

   -32.2862 -14.4840 -13.8236 -13.6046 -12.8737 -11.5042  -1.3611   0.9951
     3.1548   3.1972   4.2454   4.4573

          k = 0.0868-0.0501 0.1952 (  6009 PWs)   bands (ev):

   -32.2858 -14.5812 -13.7829 -13.6041 -12.6890 -11.6455  -1.1191   0.5732
     3.1996   3.3160   4.1667   4.3967

          k = 0.0868-0.0501 0.3253 (  6023 PWs)   bands (ev):

   -32.2854 -14.6627 -13.7559 -13.6037 -12.4277 -11.8661  -0.6719  -0.0312
     3.3034   3.3976   4.1199   4.2610

          k = 0.2605 0.4512 0.0651 (  6021 PWs)   bands (ev):

   -32.2168 -14.7437 -14.2179 -13.8183 -12.0303 -11.8104  -0.3012   0.1838
     2.6029   3.1562   3.2970   4.1977

          k = 0.2605 0.4512 0.1952 (  6009 PWs)   bands (ev):

   -32.2165 -14.7159 -14.2284 -13.8239 -12.1257 -11.7370  -0.3475   0.0276
     2.8570   3.2183   3.4415   4.0171

          k = 0.2605 0.4512 0.3253 (  6017 PWs)   bands (ev):

   -32.2163 -14.6857 -14.2415 -13.8291 -12.1950 -11.6901  -0.3850  -0.1160
     3.1249   3.3807   3.5769   3.7105

          k = 0.2605 0.6518 0.0651 (  6026 PWs)   bands (ev):

   -32.2099 -14.7267 -14.3102 -13.8135 -12.0222 -11.7750  -0.1231   0.0352
     2.5274   3.1227   3.2273   4.2355

          k = 0.2605 0.6518 0.1952 (  6022 PWs)   bands (ev):

   -32.2097 -14.7071 -14.3052 -13.8206 -12.0762 -11.7553  -0.2049  -0.0468
     2.7717   3.1927   3.3558   4.0233

          k = 0.2605 0.6518 0.3253 (  5993 PWs)   bands (ev):

   -32.2095 -14.6844 -14.3031 -13.8275 -12.1331 -11.7324  -0.3072  -0.0989
     3.1142   3.2908   3.4745   3.6871

          k = 0.2605-0.3510 0.0651 (  6005 PWs)   bands (ev):

   -32.2287 -14.7199 -14.1523 -13.7835 -12.1277 -11.7859  -0.5311   0.3515
     2.7289   3.2730   3.3578   4.1700

          k = 0.2605-0.3510 0.1952 (  6026 PWs)   bands (ev):

   -32.2284 -14.6804 -14.1898 -13.7837 -12.2345 -11.6816  -0.5678   0.1335
     2.9729   3.2765   3.5594   4.0668

          k = 0.2605-0.3510 0.3253 (  6027 PWs)   bands (ev):

   -32.2281 -14.6487 -14.2186 -13.7845 -12.2763 -11.6470  -0.5264  -0.1072
     3.1830   3.4224   3.6656   3.8789

          k = 0.2605-0.1504 0.0651 (  6013 PWs)   bands (ev):

   -32.2542 -14.5088 -14.2376 -13.6595 -12.3423 -11.7019  -0.9369   0.6383
     3.0955   3.2825   3.5114   4.2795

          k = 0.2605-0.1504 0.1952 (  6007 PWs)   bands (ev):

   -32.2538 -14.4568 -14.3077 -13.6588 -12.3593 -11.6613  -0.8854   0.3095
     3.2525   3.3177   3.6275   4.3070

          k = 0.2605-0.1504 0.3253 (  6004 PWs)   bands (ev):

   -32.2535 -14.4808 -14.3012 -13.6582 -12.2902 -11.7183  -0.6670  -0.1001
     3.3324   3.5146   3.6637   4.1941

          k = 0.4342 0.7521 0.0651 (  6019 PWs)   bands (ev):

   -32.2124 -14.8622 -14.0693 -13.8216 -12.2333 -11.6532  -0.1321   0.0394
     2.3880   3.2529   3.3960   4.1313

          k = 0.4342 0.7521 0.1952 (  6008 PWs)   bands (ev):

   -32.2122 -14.8382 -14.0688 -13.8293 -12.3052 -11.6087  -0.3165   0.0222
     2.6780   3.2778   3.4960   4.0031

          k = 0.4342 0.7521 0.3253 (  6010 PWs)   bands (ev):

   -32.2119 -14.8135 -14.0685 -13.8370 -12.3701 -11.5718  -0.4599  -0.0161
     3.0469   3.2960   3.5448   3.8323

          k = 0.4342-0.2507 0.0651 (  6016 PWs)   bands (ev):

   -32.2218 -14.9239 -13.9067 -13.7136 -12.4864 -11.5685  -0.3978   0.2436
     2.3613   3.4956   3.5563   4.0042

          k = 0.4342-0.2507 0.1952 (  6020 PWs)   bands (ev):

   -32.2215 -14.8886 -13.9304 -13.7128 -12.5923 -11.4700  -0.5928   0.1502
     2.6840   3.3802   3.6488   4.1183

          k = 0.4342-0.2507 0.3253 (  6029 PWs)   bands (ev):

   -32.2213 -14.8650 -13.9440 -13.7120 -12.6407 -11.4376  -0.6696   0.0252
     3.0460   3.3545   3.5916   4.1284

          k =-0.0868 0.3510-0.0651 (  6015 PWs)   bands (ev):

   -32.2423 -14.6640 -14.1458 -13.7057 -12.1126 -11.8882  -0.6812   0.4841
     2.9095   3.3338   3.4604   4.0748

          k =-0.0868 0.3510-0.1952 (  6011 PWs)   bands (ev):

   -32.2420 -14.6512 -14.1682 -13.7050 -12.0815 -11.9141  -0.5674   0.1316
     3.1739   3.3546   3.6624   3.8768

          k =-0.0868 0.3510-0.3253 (  6013 PWs)   bands (ev):

   -32.2417 -14.6063 -14.2224 -13.7039 -12.2300 -11.7514  -0.4448  -0.2415
     3.3503   3.4972   3.6270   3.9314

          k =-0.0868 0.5515-0.0651 (  6018 PWs)   bands (ev):

   -32.2168 -14.9432 -13.8708 -13.7995 -12.4025 -11.6106  -0.1266   0.0362
     2.3101   3.3943   3.5954   3.9409

          k =-0.0868 0.5515-0.1952 (  6017 PWs)   bands (ev):

   -32.2165 -14.9194 -13.8764 -13.8024 -12.4764 -11.5581  -0.3205  -0.0024
     2.6472   3.3811   3.6058   3.9342

          k =-0.0868 0.5515-0.3253 (  6023 PWs)   bands (ev):

   -32.2163 -14.8887 -13.8907 -13.8019 -12.5685 -11.4844  -0.5476  -0.0037
     3.0440   3.3486   3.5206   3.9927

          k =-0.0868-0.4512-0.0651 (  6013 PWs)   bands (ev):

   -32.2261 -14.8322 -14.0117 -13.7496 -12.3469 -11.6384  -0.5008   0.3203
     2.5240   3.3964   3.4834   4.1058

          k =-0.0868-0.4512-0.1952 (  6017 PWs)   bands (ev):

   -32.2259 -14.7931 -14.0470 -13.7483 -12.4510 -11.5348  -0.6262   0.1629
     2.8129   3.3276   3.6352   4.1325

          k =-0.0868-0.4512-0.3253 (  6018 PWs)   bands (ev):

   -32.2256 -14.7703 -14.0654 -13.7482 -12.4830 -11.5135  -0.6342  -0.0232
     3.1275   3.3553   3.6315   4.0634

          k =-0.0868-0.2507-0.0651 (  6004 PWs)   bands (ev):

   -32.2610 -14.3733 -14.3199 -13.6609 -12.3569 -11.7084  -1.0175   0.7096
     3.2281   3.2726   3.5185   4.2957

          k =-0.0868-0.2507-0.1952 (  6000 PWs)   bands (ev):

   -32.2606 -14.4004 -14.3151 -13.6600 -12.3042 -11.7386  -0.9027   0.3433
     3.2296   3.4887   3.6058   4.2604

          k =-0.0868-0.2507-0.3253 (  6012 PWs)   bands (ev):

   -32.2603 -14.4681 -14.2687 -13.6594 -12.1859 -11.8400  -0.6259  -0.1299
     3.3231   3.5728   3.7346   4.1438

          k =-0.0868-0.0501-0.0651 (  6015 PWs)   bands (ev):

   -32.2862 -14.4860 -13.8218 -13.6047 -12.8705 -11.5079  -1.3576   0.9953
     3.1529   3.1982   4.2974   4.3977

          k =-0.0868-0.0501-0.1952 (  6009 PWs)   bands (ev):

   -32.2858 -14.5842 -13.7805 -13.6042 -12.6803 -11.6551  -1.1106   0.5715
     3.2102   3.3018   4.2622   4.2904

          k =-0.0868-0.0501-0.3253 (  6023 PWs)   bands (ev):

   -32.2854 -14.6639 -13.7549 -13.6038 -12.4195 -11.8748  -0.6629  -0.0369
     3.3304   3.3668   4.1816   4.1970

          k =-0.2605 0.6518-0.0651 (  6026 PWs)   bands (ev):

   -32.2099 -14.7246 -14.3125 -13.8134 -12.0361 -11.7603  -0.1522   0.0601
     2.5249   3.1679   3.1845   4.2424

          k =-0.2605 0.6518-0.1952 (  6022 PWs)   bands (ev):

   -32.2097 -14.7025 -14.3102 -13.8203 -12.0973 -11.7328  -0.2528  -0.0072
     2.7622   3.2305   3.3262   4.0377

          k =-0.2605 0.6518-0.3253 (  5993 PWs)   bands (ev):

   -32.2095 -14.6819 -14.3058 -13.8273 -12.1419 -11.7229  -0.3268  -0.0834
     3.0956   3.3131   3.4700   3.6943

          k =-0.2605-0.3510-0.0651 (  6005 PWs)   bands (ev):

   -32.2287 -14.7304 -14.1409 -13.7844 -12.0234 -11.8948  -0.4813   0.3274
     2.7411   3.2151   3.4125   4.1180

          k =-0.2605-0.3510-0.1952 (  6026 PWs)   bands (ev):

   -32.2284 -14.7045 -14.1638 -13.7855 -12.1255 -11.7999  -0.4465   0.0600
     3.0302   3.2264   3.6003   3.9366

          k =-0.2605-0.3510-0.3253 (  6027 PWs)   bands (ev):

   -32.2281 -14.6629 -14.2034 -13.7854 -12.2364 -11.6917  -0.4322  -0.1788
     3.2231   3.4287   3.6802   3.7786

          k =-0.2605-0.1504-0.0651 (  6013 PWs)   bands (ev):

   -32.2542 -14.5549 -14.1920 -13.6596 -12.2314 -11.8230  -0.8652   0.6224
     3.0717   3.4099   3.4628   4.1217

          k =-0.2605-0.1504-0.1952 (  6007 PWs)   bands (ev):

   -32.2538 -14.5684 -14.1968 -13.6590 -12.0541 -11.9872  -0.7064   0.2330
     3.2267   3.5605   3.5880   3.9384

          k =-0.2605-0.1504-0.3253 (  6004 PWs)   bands (ev):

   -32.2535 -14.5410 -14.2412 -13.6583 -12.1573 -11.8616  -0.4700  -0.2490
     3.4217   3.4930   3.6975   4.0034

          k =-0.4342-0.2507-0.0651 (  6016 PWs)   bands (ev):

   -32.2218 -14.9359 -13.8973 -13.7137 -12.4203 -11.6420  -0.2331   0.1362
     2.3575   3.4819   3.6596   3.8258

          k =-0.4342-0.2507-0.1952 (  6020 PWs)   bands (ev):

   -32.2215 -14.9142 -13.9094 -13.7129 -12.4823 -11.5955  -0.2810  -0.0557
     2.7104   3.4735   3.5908   3.8791

          k =-0.4342-0.2507-0.3253 (  6029 PWs)   bands (ev):

   -32.2213 -14.8788 -13.9322 -13.7121 -12.5935 -11.4929  -0.5472  -0.0475
     3.1133   3.4309   3.4528   4.0377

!    total energy              =    -140.06815335 Ry
     Harris-Foulkes estimate   =    -140.06815362 Ry
     estimated scf accuracy    <       0.00000059 Ry

     The total energy is the sum of the following terms:

     one-electron contribution =     -56.58379027 Ry
     hartree contribution      =      39.00349162 Ry
     xc contribution           =     -26.13842769 Ry
     ewald contribution        =     -96.34942700 Ry

     convergence has been achieved in   9 iterations

     Forces acting on atoms (Ry/au):

     atom    1 type  3   force =     0.00000000   -0.00000000    0.00000000
     atom    2 type  2   force =     0.00000000   -0.00000000    0.04159048
     atom    3 type  2   force =     0.00000000    0.00000000   -0.04159048
     atom    4 type  1   force =    -0.00000000   -0.00000000    0.01941251
     atom    5 type  1   force =     0.00000000    0.00000000   -0.01941251

     Total force =     0.064909     Total SCF correction =     0.002124


     entering subroutine stress ...

          total   stress  (Ry/bohr**3)                   (kbar)     P=  198.60
   0.00139664   0.00000000  -0.00000000        205.45      0.00     -0.00
   0.00000000   0.00139664  -0.00000000          0.00    205.45     -0.00
  -0.00000000  -0.00000000   0.00125688         -0.00     -0.00    184.89


     number of scf cycles    =   2
     number of bfgs steps    =   1

     enthalpy old            =    -139.3717092357 Ry
     enthalpy new            =    -139.4170996424 Ry

     CASE: enthalpy_new < enthalpy_old

     new trust radius        =       0.1267434358 bohr
     new conv_thr            =       0.0000004159 Ry

     new unit-cell volume =    286.93687 a.u.^3 (    42.51966 Ang^3 )

CELL_PARAMETERS (alat=  6.78640000)
   0.926345364   0.000000000  -0.000000000
  -0.463172682   0.802238618   0.000000000
  -0.000000000  -0.000000000   1.235354218

ATOMIC_POSITIONS (crystal)
Ca      -0.000000000  -0.000000000   0.000000000
O        0.333333333   0.666666667   0.235073646
O        0.666666667   0.333333333   0.764926354
H        0.333333333   0.666666667   0.445305660
H        0.666666667   0.333333333   0.554694340



     Writing output data file CaOH2_ambient.save
     NEW-OLD atomic charge density approx. for the potential
     NEW k-points:
        k(    1) = (   0.0899592   0.1558140   0.0674570), wk =   0.0370370
        k(    2) = (   0.0899592   0.1558140   0.2023711), wk =   0.0370370
        k(    3) = (   0.0899592   0.1558140   0.3372852), wk =   0.0370370
        k(    4) = (   0.0899592   0.3635660   0.0674570), wk =   0.0370370
        k(    5) = (   0.0899592   0.3635660   0.2023711), wk =   0.0370370
        k(    6) = (   0.0899592   0.3635660   0.3372852), wk =   0.0370370
        k(    7) = (   0.0899592   0.5713180   0.0674570), wk =   0.0370370
        k(    8) = (   0.0899592   0.5713180   0.2023711), wk =   0.0370370
        k(    9) = (   0.0899592   0.5713180   0.3372852), wk =   0.0370370
        k(   10) = (   0.0899592  -0.4674420   0.0674570), wk =   0.0370370
        k(   11) = (   0.0899592  -0.4674420   0.2023711), wk =   0.0370370
        k(   12) = (   0.0899592  -0.4674420   0.3372852), wk =   0.0370370
        k(   13) = (   0.0899592  -0.2596900   0.0674570), wk =   0.0370370
        k(   14) = (   0.0899592  -0.2596900   0.2023711), wk =   0.0370370
        k(   15) = (   0.0899592  -0.2596900   0.3372852), wk =   0.0370370
        k(   16) = (   0.0899592  -0.0519380   0.0674570), wk =   0.0185185
        k(   17) = (   0.0899592  -0.0519380   0.2023711), wk =   0.0185185
        k(   18) = (   0.0899592  -0.0519380   0.3372852), wk =   0.0185185
        k(   19) = (   0.2698777   0.4674420   0.0674570), wk =   0.0370370
        k(   20) = (   0.2698777   0.4674420   0.2023711), wk =   0.0370370
        k(   21) = (   0.2698777   0.4674420   0.3372852), wk =   0.0370370
        k(   22) = (   0.2698777   0.6751940   0.0674570), wk =   0.0370370
        k(   23) = (   0.2698777   0.6751940   0.2023711), wk =   0.0370370
        k(   24) = (   0.2698777   0.6751940   0.3372852), wk =   0.0370370
        k(   25) = (   0.2698777  -0.3635660   0.0674570), wk =   0.0370370
        k(   26) = (   0.2698777  -0.3635660   0.2023711), wk =   0.0370370
        k(   27) = (   0.2698777  -0.3635660   0.3372852), wk =   0.0370370
        k(   28) = (   0.2698777  -0.1558140   0.0674570), wk =   0.0185185
        k(   29) = (   0.2698777  -0.1558140   0.2023711), wk =   0.0185185
        k(   30) = (   0.2698777  -0.1558140   0.3372852), wk =   0.0185185
        k(   31) = (   0.4497962   0.7790700   0.0674570), wk =   0.0370370
        k(   32) = (   0.4497962   0.7790700   0.2023711), wk =   0.0370370
        k(   33) = (   0.4497962   0.7790700   0.3372852), wk =   0.0370370
        k(   34) = (   0.4497962  -0.2596900   0.0674570), wk =   0.0185185
        k(   35) = (   0.4497962  -0.2596900   0.2023711), wk =   0.0185185
        k(   36) = (   0.4497962  -0.2596900   0.3372852), wk =   0.0185185
        k(   37) = (  -0.0899592   0.3635660  -0.0674570), wk =   0.0370370
        k(   38) = (  -0.0899592   0.3635660  -0.2023711), wk =   0.0370370
        k(   39) = (  -0.0899592   0.3635660  -0.3372852), wk =   0.0370370
        k(   40) = (  -0.0899592   0.5713180  -0.0674570), wk =   0.0370370
        k(   41) = (  -0.0899592   0.5713180  -0.2023711), wk =   0.0370370
        k(   42) = (  -0.0899592   0.5713180  -0.3372852), wk =   0.0370370
        k(   43) = (  -0.0899592  -0.4674420  -0.0674570), wk =   0.0370370
        k(   44) = (  -0.0899592  -0.4674420  -0.2023711), wk =   0.0370370
        k(   45) = (  -0.0899592  -0.4674420  -0.3372852), wk =   0.0370370
        k(   46) = (  -0.0899592  -0.2596900  -0.0674570), wk =   0.0370370
        k(   47) = (  -0.0899592  -0.2596900  -0.2023711), wk =   0.0370370
        k(   48) = (  -0.0899592  -0.2596900  -0.3372852), wk =   0.0370370
        k(   49) = (  -0.0899592  -0.0519380  -0.0674570), wk =   0.0185185
        k(   50) = (  -0.0899592  -0.0519380  -0.2023711), wk =   0.0185185
        k(   51) = (  -0.0899592  -0.0519380  -0.3372852), wk =   0.0185185
        k(   52) = (  -0.2698777   0.6751940  -0.0674570), wk =   0.0370370
        k(   53) = (  -0.2698777   0.6751940  -0.2023711), wk =   0.0370370
        k(   54) = (  -0.2698777   0.6751940  -0.3372852), wk =   0.0370370
        k(   55) = (  -0.2698777  -0.3635660  -0.0674570), wk =   0.0370370
        k(   56) = (  -0.2698777  -0.3635660  -0.2023711), wk =   0.0370370
        k(   57) = (  -0.2698777  -0.3635660  -0.3372852), wk =   0.0370370
        k(   58) = (  -0.2698777  -0.1558140  -0.0674570), wk =   0.0185185
        k(   59) = (  -0.2698777  -0.1558140  -0.2023711), wk =   0.0185185
        k(   60) = (  -0.2698777  -0.1558140  -0.3372852), wk =   0.0185185
        k(   61) = (  -0.4497962  -0.2596900  -0.0674570), wk =   0.0185185
        k(   62) = (  -0.4497962  -0.2596900  -0.2023711), wk =   0.0185185
        k(   63) = (  -0.4497962  -0.2596900  -0.3372852), wk =   0.0185185
     extrapolated charge   21.52293, renormalised to   24.00000

     total cpu time spent up to now is      731.1 secs

     per-process dynamical memory:    24.8 Mb

     Self-consistent Calculation

     iteration #  1     ecut=   100.00 Ry     beta=0.30
     Davidson diagonalization with overlap
     ethr =  1.00E-06,  avg # of iterations =  6.0

     total cpu time spent up to now is      777.6 secs

     total energy              =    -139.45645853 Ry
     Harris-Foulkes estimate   =    -144.16985151 Ry
     estimated scf accuracy    <       0.82921835 Ry

     iteration #  2     ecut=   100.00 Ry     beta=0.30
     Davidson diagonalization with overlap
     ethr =  3.46E-03,  avg # of iterations =  3.0

     total cpu time spent up to now is      803.0 secs

     total energy              =    -140.02264507 Ry
     Harris-Foulkes estimate   =    -140.03763763 Ry
     estimated scf accuracy    <       0.09024158 Ry

     iteration #  3     ecut=   100.00 Ry     beta=0.30
     Davidson diagonalization with overlap
     ethr =  3.76E-04,  avg # of iterations =  1.0

     total cpu time spent up to now is      819.2 secs

     total energy              =    -139.99613721 Ry
     Harris-Foulkes estimate   =    -140.02503826 Ry
     estimated scf accuracy    <       0.04781117 Ry

     iteration #  4     ecut=   100.00 Ry     beta=0.30
     Davidson diagonalization with overlap
     ethr =  1.99E-04,  avg # of iterations =  2.0

     total cpu time spent up to now is      840.8 secs

     total energy              =    -140.01239230 Ry
     Harris-Foulkes estimate   =    -140.01511829 Ry
     estimated scf accuracy    <       0.01007953 Ry

     iteration #  5     ecut=   100.00 Ry     beta=0.30
     Davidson diagonalization with overlap
     ethr =  4.20E-05,  avg # of iterations =  1.7

     total cpu time spent up to now is      857.8 secs

     total energy              =    -140.01147994 Ry
     Harris-Foulkes estimate   =    -140.01292822 Ry
     estimated scf accuracy    <       0.00277699 Ry

     iteration #  6     ecut=   100.00 Ry     beta=0.30
     Davidson diagonalization with overlap
     ethr =  1.16E-05,  avg # of iterations =  2.0

     total cpu time spent up to now is      879.6 secs

     total energy              =    -140.01224722 Ry
     Harris-Foulkes estimate   =    -140.01229466 Ry
     estimated scf accuracy    <       0.00019989 Ry

     iteration #  7     ecut=   100.00 Ry     beta=0.30
     Davidson diagonalization with overlap
     ethr =  8.33E-07,  avg # of iterations =  1.8

     total cpu time spent up to now is      896.6 secs

     total energy              =    -140.01224315 Ry
     Harris-Foulkes estimate   =    -140.01225706 Ry
     estimated scf accuracy    <       0.00007327 Ry

     iteration #  8     ecut=   100.00 Ry     beta=0.30
     Davidson diagonalization with overlap
     ethr =  3.05E-07,  avg # of iterations =  2.0

     total cpu time spent up to now is      914.3 secs

     total energy              =    -140.01223360 Ry
     Harris-Foulkes estimate   =    -140.01224708 Ry
     estimated scf accuracy    <       0.00002568 Ry

     iteration #  9     ecut=   100.00 Ry     beta=0.30
     Davidson diagonalization with overlap
     ethr =  1.07E-07,  avg # of iterations =  2.0

     total cpu time spent up to now is      935.5 secs

     total energy              =    -140.01224081 Ry
     Harris-Foulkes estimate   =    -140.01224108 Ry
     estimated scf accuracy    <       0.00000178 Ry

     iteration # 10     ecut=   100.00 Ry     beta=0.30
     Davidson diagonalization with overlap
     ethr =  7.41E-09,  avg # of iterations =  1.0

     total cpu time spent up to now is      953.1 secs

     total energy              =    -140.01224043 Ry
     Harris-Foulkes estimate   =    -140.01224086 Ry
     estimated scf accuracy    <       0.00000101 Ry

     iteration # 11     ecut=   100.00 Ry     beta=0.30
     Davidson diagonalization with overlap
     ethr =  4.19E-09,  avg # of iterations =  2.0

     total cpu time spent up to now is      973.8 secs

     End of self-consistent calculation

          k = 0.0900 0.1558 0.0675 (  6010 PWs)   bands (ev):

   -30.8791 -13.4444 -13.0879 -12.2034 -11.5961 -10.4146  -0.4657   1.7983
     4.0961   4.1962   4.9917   5.4531

          k = 0.0900 0.1558 0.2024 (  6001 PWs)   bands (ev):

   -30.8783 -13.6363 -12.9242 -12.2024 -11.4382 -10.5535  -0.2494   1.3579
     4.1311   4.3840   4.9875   5.3743

          k = 0.0900 0.1558 0.3373 (  6026 PWs)   bands (ev):

   -30.8775 -13.7597 -12.8319 -12.2015 -11.1892 -10.7807   0.1604   0.7525
     4.2677   4.4644   5.0117   5.2392

          k = 0.0900 0.3636 0.0675 (  6015 PWs)   bands (ev):

   -30.8240 -13.7480 -13.0925 -12.3175 -11.2531 -10.6108   0.0672   1.3644
     3.8109   4.2621   4.4654   5.2801

          k = 0.0900 0.3636 0.2024 (  6011 PWs)   bands (ev):

   -30.8234 -13.6508 -13.2283 -12.3155 -11.3200 -10.4951   0.0224   1.0758
     4.0549   4.2122   4.6891   5.2981

          k = 0.0900 0.3636 0.3373 (  6013 PWs)   bands (ev):

   -30.8227 -13.6042 -13.2966 -12.3145 -11.3007 -10.4997   0.1335   0.7542
     4.1871   4.3942   4.7477   5.1923

          k = 0.0900 0.5713 0.0675 (  6018 PWs)   bands (ev):

   -30.7831 -14.1046 -12.6366 -12.4337 -11.5861 -10.4512   0.5831   0.9982
     3.1476   4.4082   4.5672   5.0725

          k = 0.0900 0.5713 0.2024 (  6017 PWs)   bands (ev):

   -30.7826 -14.0503 -12.6779 -12.4383 -11.6932 -10.3572   0.3034   0.9959
     3.5273   4.2888   4.6355   5.1548

          k = 0.0900 0.5713 0.3373 (  6023 PWs)   bands (ev):

   -30.7821 -14.0036 -12.6989 -12.4489 -11.7700 -10.3084   0.1376   0.9606
     3.9545   4.2202   4.5689   5.1714

          k = 0.0900-0.4674 0.0675 (  6013 PWs)   bands (ev):

   -30.7981 -14.0076 -12.8064 -12.3805 -11.3249 -10.6410   0.5314   1.0738
     3.3858   4.3405   4.5817   4.9883

          k = 0.0900-0.4674 0.2024 (  6017 PWs)   bands (ev):

   -30.7976 -13.9732 -12.8424 -12.3819 -11.3770 -10.5980   0.5813   0.7802
     3.7833   4.2864   4.6762   4.8830

          k = 0.0900-0.4674 0.3373 (  6018 PWs)   bands (ev):

   -30.7971 -13.9006 -12.9344 -12.3795 -11.5000 -10.4509   0.2925   0.7771
     4.1774   4.3248   4.4875   5.0636

          k = 0.0900-0.2597 0.0675 (  6004 PWs)   bands (ev):

   -30.8536 -13.5250 -13.2029 -12.2558 -11.2748 -10.6287  -0.1754   1.5864
     4.1214   4.3125   4.5056   5.2760

          k = 0.0900-0.2597 0.2024 (  6000 PWs)   bands (ev):

   -30.8529 -13.5979 -13.1635 -12.2546 -11.1206 -10.7537  -0.0115   1.1651
     4.1648   4.5224   4.6795   5.1096

          k = 0.0900-0.2597 0.3373 (  6012 PWs)   bands (ev):

   -30.8522 -13.6245 -13.1751 -12.2531 -10.9718 -10.8604   0.2778   0.6227
     4.2898   4.5243   4.8768   5.0606

          k = 0.0900-0.0519 0.0675 (  6015 PWs)   bands (ev):

   -30.8937 -13.5063 -12.8075 -12.1756 -11.8751 -10.2991  -0.6223   1.9270
     4.0621   4.1221   5.3158   5.5614

          k = 0.0900-0.0519 0.2024 (  6009 PWs)   bands (ev):

   -30.8928 -13.7080 -12.6135 -12.1747 -11.7204 -10.4630  -0.3606   1.4793
     4.1146   4.2732   5.2056   5.4866

          k = 0.0900-0.0519 0.3373 (  6023 PWs)   bands (ev):

   -30.8920 -13.8499 -12.5001 -12.1740 -11.4648 -10.7085   0.1141   0.8440
     4.2448   4.3772   5.1390   5.3120

          k = 0.2699 0.4674 0.0675 (  6021 PWs)   bands (ev):

   -30.7832 -13.8693 -13.1673 -12.4431 -10.9974 -10.7324   0.5657   1.0035
     3.4780   4.1136   4.2775   5.3020

          k = 0.2699 0.4674 0.2024 (  6009 PWs)   bands (ev):

   -30.7827 -13.8183 -13.1942 -12.4545 -11.1141 -10.6493   0.4996   0.8727
     3.7720   4.1541   4.4307   5.1032

          k = 0.2699 0.4674 0.3373 (  6017 PWs)   bands (ev):

   -30.7822 -13.7593 -13.2300 -12.4648 -11.1991 -10.5982   0.4341   0.7642
     4.0407   4.3559   4.5652   4.7651

          k = 0.2699 0.6752 0.0675 (  6026 PWs)   bands (ev):

   -30.7722 -13.8411 -13.2951 -12.4268 -10.9971 -10.6934   0.7423   0.8466
     3.3938   4.0804   4.2057   5.3561

          k = 0.2699 0.6752 0.2024 (  6022 PWs)   bands (ev):

   -30.7717 -13.8057 -13.2888 -12.4394 -11.0735 -10.6794   0.6357   0.8190
     3.6815   4.1247   4.3293   5.1152

          k = 0.2699 0.6752 0.3373 (  5993 PWs)   bands (ev):

   -30.7713 -13.7631 -13.2900 -12.4516 -11.1528 -10.6612   0.5231   0.8027
     4.0727   4.2275   4.4296   4.7329

          k = 0.2699-0.3636 0.0675 (  6005 PWs)   bands (ev):

   -30.8022 -13.8460 -13.0695 -12.4138 -11.1080 -10.6885   0.3222   1.1873
     3.6195   4.2370   4.3433   5.2550

          k = 0.2699-0.3636 0.2024 (  6026 PWs)   bands (ev):

   -30.8016 -13.7719 -13.1555 -12.4157 -11.2227 -10.5619   0.2514   0.9747
     3.8920   4.2121   4.5907   5.1492

          k = 0.2699-0.3636 0.3373 (  6027 PWs)   bands (ev):

   -30.8011 -13.7062 -13.2257 -12.4183 -11.2662 -10.5214   0.2648   0.7545
     4.0850   4.3855   4.7287   4.9404

          k = 0.2699-0.1558 0.0675 (  6013 PWs)   bands (ev):

   -30.8428 -13.5917 -13.1916 -12.2537 -11.3304 -10.5619  -0.1301   1.5076
     4.0341   4.2145   4.5202   5.3651

          k = 0.2699-0.1558 0.2024 (  6007 PWs)   bands (ev):

   -30.8421 -13.4755 -13.3538 -12.2525 -11.3332 -10.5006  -0.1085   1.1577
     4.1609   4.2814   4.6722   5.4171

          k = 0.2699-0.1558 0.3373 (  6004 PWs)   bands (ev):

   -30.8414 -13.5395 -13.3171 -12.2514 -11.2493 -10.5641   0.1031   0.7420
     4.2422   4.4748   4.7394   5.2921

          k = 0.4498 0.7791 0.0675 (  6019 PWs)   bands (ev):

   -30.7762 -14.0106 -12.9640 -12.4397 -11.2801 -10.5461   0.7225   0.8757
     3.2342   4.2269   4.3937   5.2258

          k = 0.4498 0.7791 0.2024 (  6008 PWs)   bands (ev):

   -30.7757 -13.9677 -12.9708 -12.4535 -11.3733 -10.4973   0.4891   0.9151
     3.5738   4.2053   4.4964   5.0998

          k = 0.4498 0.7791 0.3373 (  6010 PWs)   bands (ev):

   -30.7752 -13.9218 -12.9798 -12.4674 -11.4584 -10.4572   0.3222   0.9111
     4.0040   4.1899   4.5189   4.9314

          k = 0.4498-0.2597 0.0675 (  6016 PWs)   bands (ev):

   -30.7911 -14.0886 -12.6421 -12.3303 -11.6779 -10.4357   0.4376   1.1015
     3.2064   4.4610   4.6169   5.0561

          k = 0.4498-0.2597 0.2024 (  6020 PWs)   bands (ev):

   -30.7906 -14.0239 -12.7181 -12.3288 -11.7843 -10.3123   0.1736   1.0306
     3.5867   4.2839   4.7129   5.2357

          k = 0.4498-0.2597 0.3373 (  6029 PWs)   bands (ev):

   -30.7901 -13.9794 -12.7579 -12.3273 -11.8405 -10.2727   0.0596   0.9424
     3.9929   4.2241   4.6266   5.2785

          k =-0.0900 0.3636-0.0675 (  6015 PWs)   bands (ev):

   -30.8240 -13.7967 -13.0291 -12.3188 -11.0981 -10.7973   0.1837   1.3350
     3.8246   4.2950   4.4572   5.1082

          k =-0.0900 0.3636-0.2024 (  6011 PWs)   bands (ev):

   -30.8234 -13.7762 -13.0732 -12.3178 -11.0485 -10.8301   0.3085   0.9490
     4.1374   4.2947   4.7155   4.8576

          k =-0.0900 0.3636-0.3373 (  6013 PWs)   bands (ev):

   -30.8227 -13.6934 -13.1923 -12.3155 -11.2036 -10.6288   0.3745   0.5878
     4.2641   4.5005   4.6368   5.0020

          k =-0.0900 0.5713-0.0675 (  6018 PWs)   bands (ev):

   -30.7831 -14.1148 -12.6147 -12.4396 -11.5564 -10.4950   0.8045   0.8222
     3.1401   4.3925   4.6191   4.9798

          k =-0.0900 0.5713-0.2024 (  6017 PWs)   bands (ev):

   -30.7826 -14.0729 -12.6280 -12.4519 -11.6474 -10.4334   0.4782   0.9055
     3.5370   4.3179   4.5975   5.0322

          k =-0.0900 0.5713-0.3373 (  6023 PWs)   bands (ev):

   -30.7821 -14.0162 -12.6706 -12.4564 -11.7522 -10.3426   0.1997   0.9382
     4.0004   4.2355   4.4901   5.1306

          k =-0.0900-0.4674-0.0675 (  6013 PWs)   bands (ev):

   -30.7981 -13.9777 -12.8531 -12.3772 -11.4207 -10.5124   0.3381   1.1673
     3.3904   4.3563   4.5150   5.1792

          k =-0.0900-0.4674-0.2024 (  6017 PWs)   bands (ev):

   -30.7976 -13.9043 -12.9473 -12.3755 -11.5239 -10.3829   0.1538   1.0243
     3.7262   4.2395   4.6943   5.2417

          k =-0.0900-0.4674-0.3373 (  6018 PWs)   bands (ev):

   -30.7971 -13.8599 -12.9942 -12.3764 -11.5574 -10.3581   0.1152   0.8685
     4.0622   4.2554   4.6800   5.1861

          k =-0.0900-0.2597-0.0675 (  6004 PWs)   bands (ev):

   -30.8536 -13.4475 -13.2881 -12.2555 -11.3196 -10.5681  -0.2168   1.5892
     4.1585   4.2347   4.5086   5.3777

          k =-0.0900-0.2597-0.2024 (  6000 PWs)   bands (ev):

   -30.8529 -13.4837 -13.2921 -12.2540 -11.2494 -10.5942  -0.1130   1.1956
     4.1416   4.4928   4.6135   5.3457

          k =-0.0900-0.2597-0.3373 (  6012 PWs)   bands (ev):

   -30.8522 -13.5822 -13.2244 -12.2528 -11.1084 -10.7088   0.1664   0.7006
     4.2403   4.5693   4.7827   5.2134

          k =-0.0900-0.0519-0.0675 (  6015 PWs)   bands (ev):

   -30.8937 -13.5114 -12.7999 -12.1756 -11.8736 -10.3043  -0.6173   1.9279
     4.0646   4.1184   5.3843   5.4824

          k =-0.0900-0.0519-0.2024 (  6009 PWs)   bands (ev):

   -30.8928 -13.7137 -12.6040 -12.1749 -11.7139 -10.4758  -0.3485   1.4783
     4.1332   4.2499   5.3064   5.3706

          k =-0.0900-0.0519-0.3373 (  6023 PWs)   bands (ev):

   -30.8920 -13.8520 -12.4967 -12.1741 -11.4571 -10.7186   0.1258   0.8376
     4.2849   4.3313   5.2032   5.2451

          k =-0.2699 0.6752-0.0675 (  6026 PWs)   bands (ev):

   -30.7722 -13.8370 -13.3001 -12.4266 -11.0136 -10.6749   0.6933   0.8885
     3.3912   4.1367   4.1526   5.3655

          k =-0.2699 0.6752-0.2024 (  6022 PWs)   bands (ev):

   -30.7717 -13.7965 -13.3001 -12.4388 -11.0977 -10.6510   0.5803   0.8608
     3.6692   4.1653   4.3026   5.1331

          k =-0.2699 0.6752-0.3373 (  5993 PWs)   bands (ev):

   -30.7713 -13.7578 -13.2964 -12.4513 -11.1626 -10.6493   0.5037   0.8153
     4.0476   4.2407   4.4517   4.7322

          k =-0.2699-0.3636-0.0675 (  6005 PWs)   bands (ev):

   -30.8022 -13.8654 -13.0426 -12.4157 -10.9911 -10.8194   0.3958   1.1558
     3.6333   4.1683   4.4063   5.1846

          k =-0.2699-0.3636-0.2024 (  6026 PWs)   bands (ev):

   -30.8016 -13.8196 -13.0919 -12.4195 -11.0999 -10.7133   0.4245   0.8799
     3.9708   4.1533   4.6178   4.9845

          k =-0.2699-0.3636-0.3373 (  6027 PWs)   bands (ev):

   -30.8011 -13.7385 -13.1852 -12.4202 -11.2227 -10.5795   0.3759   0.6803
     4.1240   4.4395   4.6543   4.8656

          k =-0.2699-0.1558-0.0675 (  6013 PWs)   bands (ev):

   -30.8428 -13.6729 -13.0946 -12.2539 -11.2108 -10.7165  -0.0261   1.4940
     4.0076   4.3827   4.4436   5.1548

          k =-0.2699-0.1558-0.2024 (  6007 PWs)   bands (ev):

   -30.8421 -13.6972 -13.1012 -12.2528 -10.9935 -10.9097   0.1477   1.0673
     4.1819   4.5663   4.5870   4.9281

          k =-0.2699-0.1558-0.3373 (  6004 PWs)   bands (ev):

   -30.8414 -13.6532 -13.1883 -12.2516 -11.1036 -10.7442   0.3748   0.5481
     4.3874   4.4369   4.7432   5.0559

          k =-0.4498-0.2597-0.0675 (  6016 PWs)   bands (ev):

   -30.7911 -14.1104 -12.6081 -12.3304 -11.6152 -10.5284   0.6819   0.9534
     3.1904   4.5160   4.6963   4.8011

          k =-0.4498-0.2597-0.2024 (  6020 PWs)   bands (ev):

   -30.7906 -14.0727 -12.6390 -12.3289 -11.6884 -10.4741   0.5485   0.8314
     3.6073   4.4740   4.5063   4.9742

          k =-0.4498-0.2597-0.3373 (  6029 PWs)   bands (ev):

   -30.7901 -14.0071 -12.7120 -12.3274 -11.8041 -10.3450   0.1952   0.8886
     4.0812   4.3033   4.4345   5.1797

!    total energy              =    -140.01224063 Ry
     Harris-Foulkes estimate   =    -140.01224064 Ry
     estimated scf accuracy    <          5.2E-09 Ry

     The total energy is the sum of the following terms:

     one-electron contribution =     -49.99013917 Ry
     hartree contribution      =      36.76186339 Ry
     xc contribution           =     -26.34346041 Ry
     ewald contribution        =    -100.44050445 Ry

     convergence has been achieved in  11 iterations

     Forces acting on atoms (Ry/au):

     atom    1 type  3   force =    -0.00000000    0.00000000    0.00000000
     atom    2 type  2   force =     0.00000000    0.00000000    0.00027465
     atom    3 type  2   force =     0.00000000    0.00000000   -0.00027465
     atom    4 type  1   force =     0.00000000   -0.00000000    0.08931016
     atom    5 type  1   force =    -0.00000000    0.00000000   -0.08931016

     Total force =     0.126304     Total SCF correction =     0.000258


     entering subroutine stress ...

          total   stress  (Ry/bohr**3)                   (kbar)     P=  385.36
   0.00248040  -0.00000000   0.00000000        364.88     -0.00      0.00
  -0.00000000   0.00248040  -0.00000000         -0.00    364.88     -0.00
   0.00000000  -0.00000000   0.00289806          0.00     -0.00    426.32


     number of scf cycles    =   3
     number of bfgs steps    =   2

     enthalpy old            =    -139.4170996424 Ry
     enthalpy new            =    -139.4270733706 Ry

     CASE: enthalpy_new < enthalpy_old

     new trust radius        =       0.0655916757 bohr
     new conv_thr            =       0.0000008931 Ry

     new unit-cell volume =    288.75448 a.u.^3 (    42.78900 Ang^3 )

CELL_PARAMETERS (alat=  6.78640000)
   0.926499897   0.000000000  -0.000000000
  -0.463249948   0.802372447  -0.000000000
   0.000000000  -0.000000000   1.242764938

ATOMIC_POSITIONS (crystal)
Ca      -0.000000000  -0.000000000  -0.000000000
O        0.333333333   0.666666667   0.236858315
O        0.666666667   0.333333333   0.763141685
H        0.333333333   0.666666667   0.453129460
H        0.666666667   0.333333333   0.546870540



     Writing output data file CaOH2_ambient.save
     NEW-OLD atomic charge density approx. for the potential
     NEW k-points:
        k(    1) = (   0.0899442   0.1557880   0.0670548), wk =   0.0370370
        k(    2) = (   0.0899442   0.1557880   0.2011643), wk =   0.0370370
        k(    3) = (   0.0899442   0.1557880   0.3352739), wk =   0.0370370
        k(    4) = (   0.0899442   0.3635053   0.0670548), wk =   0.0370370
        k(    5) = (   0.0899442   0.3635053   0.2011643), wk =   0.0370370
        k(    6) = (   0.0899442   0.3635053   0.3352739), wk =   0.0370370
        k(    7) = (   0.0899442   0.5712227   0.0670548), wk =   0.0370370
        k(    8) = (   0.0899442   0.5712227   0.2011643), wk =   0.0370370
        k(    9) = (   0.0899442   0.5712227   0.3352739), wk =   0.0370370
        k(   10) = (   0.0899442  -0.4673640   0.0670548), wk =   0.0370370
        k(   11) = (   0.0899442  -0.4673640   0.2011643), wk =   0.0370370
        k(   12) = (   0.0899442  -0.4673640   0.3352739), wk =   0.0370370
        k(   13) = (   0.0899442  -0.2596467   0.0670548), wk =   0.0370370
        k(   14) = (   0.0899442  -0.2596467   0.2011643), wk =   0.0370370
        k(   15) = (   0.0899442  -0.2596467   0.3352739), wk =   0.0370370
        k(   16) = (   0.0899442  -0.0519293   0.0670548), wk =   0.0185185
        k(   17) = (   0.0899442  -0.0519293   0.2011643), wk =   0.0185185
        k(   18) = (   0.0899442  -0.0519293   0.3352739), wk =   0.0185185
        k(   19) = (   0.2698327   0.4673640   0.0670548), wk =   0.0370370
        k(   20) = (   0.2698327   0.4673640   0.2011643), wk =   0.0370370
        k(   21) = (   0.2698327   0.4673640   0.3352739), wk =   0.0370370
        k(   22) = (   0.2698327   0.6750813   0.0670548), wk =   0.0370370
        k(   23) = (   0.2698327   0.6750813   0.2011643), wk =   0.0370370
        k(   24) = (   0.2698327   0.6750813   0.3352739), wk =   0.0370370
        k(   25) = (   0.2698327  -0.3635053   0.0670548), wk =   0.0370370
        k(   26) = (   0.2698327  -0.3635053   0.2011643), wk =   0.0370370
        k(   27) = (   0.2698327  -0.3635053   0.3352739), wk =   0.0370370
        k(   28) = (   0.2698327  -0.1557880   0.0670548), wk =   0.0185185
        k(   29) = (   0.2698327  -0.1557880   0.2011643), wk =   0.0185185
        k(   30) = (   0.2698327  -0.1557880   0.3352739), wk =   0.0185185
        k(   31) = (   0.4497212   0.7789400   0.0670548), wk =   0.0370370
        k(   32) = (   0.4497212   0.7789400   0.2011643), wk =   0.0370370
        k(   33) = (   0.4497212   0.7789400   0.3352739), wk =   0.0370370
        k(   34) = (   0.4497212  -0.2596467   0.0670548), wk =   0.0185185
        k(   35) = (   0.4497212  -0.2596467   0.2011643), wk =   0.0185185
        k(   36) = (   0.4497212  -0.2596467   0.3352739), wk =   0.0185185
        k(   37) = (  -0.0899442   0.3635053  -0.0670548), wk =   0.0370370
        k(   38) = (  -0.0899442   0.3635053  -0.2011643), wk =   0.0370370
        k(   39) = (  -0.0899442   0.3635053  -0.3352739), wk =   0.0370370
        k(   40) = (  -0.0899442   0.5712227  -0.0670548), wk =   0.0370370
        k(   41) = (  -0.0899442   0.5712227  -0.2011643), wk =   0.0370370
        k(   42) = (  -0.0899442   0.5712227  -0.3352739), wk =   0.0370370
        k(   43) = (  -0.0899442  -0.4673640  -0.0670548), wk =   0.0370370
        k(   44) = (  -0.0899442  -0.4673640  -0.2011643), wk =   0.0370370
        k(   45) = (  -0.0899442  -0.4673640  -0.3352739), wk =   0.0370370
        k(   46) = (  -0.0899442  -0.2596467  -0.0670548), wk =   0.0370370
        k(   47) = (  -0.0899442  -0.2596467  -0.2011643), wk =   0.0370370
        k(   48) = (  -0.0899442  -0.2596467  -0.3352739), wk =   0.0370370
        k(   49) = (  -0.0899442  -0.0519293  -0.0670548), wk =   0.0185185
        k(   50) = (  -0.0899442  -0.0519293  -0.2011643), wk =   0.0185185
        k(   51) = (  -0.0899442  -0.0519293  -0.3352739), wk =   0.0185185
        k(   52) = (  -0.2698327   0.6750813  -0.0670548), wk =   0.0370370
        k(   53) = (  -0.2698327   0.6750813  -0.2011643), wk =   0.0370370
        k(   54) = (  -0.2698327   0.6750813  -0.3352739), wk =   0.0370370
        k(   55) = (  -0.2698327  -0.3635053  -0.0670548), wk =   0.0370370
        k(   56) = (  -0.2698327  -0.3635053  -0.2011643), wk =   0.0370370
        k(   57) = (  -0.2698327  -0.3635053  -0.3352739), wk =   0.0370370
        k(   58) = (  -0.2698327  -0.1557880  -0.0670548), wk =   0.0185185
        k(   59) = (  -0.2698327  -0.1557880  -0.2011643), wk =   0.0185185
        k(   60) = (  -0.2698327  -0.1557880  -0.3352739), wk =   0.0185185
        k(   61) = (  -0.4497212  -0.2596467  -0.0670548), wk =   0.0185185
        k(   62) = (  -0.4497212  -0.2596467  -0.2011643), wk =   0.0185185
        k(   63) = (  -0.4497212  -0.2596467  -0.3352739), wk =   0.0185185
     extrapolated charge   24.13848, renormalised to   24.00000

     total cpu time spent up to now is     1100.0 secs

     per-process dynamical memory:    24.8 Mb

     Self-consistent Calculation

     iteration #  1     ecut=   100.00 Ry     beta=0.30
     Davidson diagonalization with overlap
     ethr =  1.00E-06,  avg # of iterations =  4.0

     total cpu time spent up to now is     1138.7 secs

     total energy              =    -140.02255443 Ry
     Harris-Foulkes estimate   =    -139.80262707 Ry
     estimated scf accuracy    <       0.00790747 Ry

     iteration #  2     ecut=   100.00 Ry     beta=0.30
     Davidson diagonalization with overlap
     ethr =  3.29E-05,  avg # of iterations =  2.9

     total cpu time spent up to now is     1162.4 secs

     total energy              =    -140.02531965 Ry
     Harris-Foulkes estimate   =    -140.02536813 Ry
     estimated scf accuracy    <       0.00035430 Ry

     iteration #  3     ecut=   100.00 Ry     beta=0.30
     Davidson diagonalization with overlap
     ethr =  1.48E-06,  avg # of iterations =  1.3

     total cpu time spent up to now is     1178.9 secs

     total energy              =    -140.02525736 Ry
     Harris-Foulkes estimate   =    -140.02533114 Ry
     estimated scf accuracy    <       0.00020039 Ry

     iteration #  4     ecut=   100.00 Ry     beta=0.30
     Davidson diagonalization with overlap
     ethr =  8.35E-07,  avg # of iterations =  2.0

     total cpu time spent up to now is     1198.9 secs

     total energy              =    -140.02527474 Ry
     Harris-Foulkes estimate   =    -140.02527532 Ry
     estimated scf accuracy    <       0.00000334 Ry

     iteration #  5     ecut=   100.00 Ry     beta=0.30
     Davidson diagonalization with overlap
     ethr =  1.39E-08,  avg # of iterations =  2.0

     total cpu time spent up to now is     1216.8 secs

     total energy              =    -140.02527410 Ry
     Harris-Foulkes estimate   =    -140.02527498 Ry
     estimated scf accuracy    <       0.00000182 Ry

     iteration #  6     ecut=   100.00 Ry     beta=0.30
     Davidson diagonalization with overlap
     ethr =  7.57E-09,  avg # of iterations =  3.0

     total cpu time spent up to now is     1239.3 secs

     End of self-consistent calculation

          k = 0.0899 0.1558 0.0671 (  6010 PWs)   bands (ev):

   -30.9833 -13.4393 -13.0580 -12.3067 -11.5697 -10.3119  -0.4396   1.8930
     4.0823   4.1831   4.9497   5.4111

          k = 0.0899 0.1558 0.2012 (  6001 PWs)   bands (ev):

   -30.9825 -13.6131 -12.9240 -12.3058 -11.3910 -10.4608  -0.2155   1.4325
     4.1191   4.3732   4.9499   5.3330

          k = 0.0899 0.1558 0.3353 (  6026 PWs)   bands (ev):

   -30.9818 -13.7305 -12.8478 -12.3050 -11.1087 -10.7121   0.2138   0.7993
     4.2589   4.4558   4.9726   5.1994

          k = 0.0899 0.3635 0.0671 (  6015 PWs)   bands (ev):

   -30.9292 -13.7288 -13.0989 -12.4174 -11.1813 -10.5199   0.0857   1.4426
     3.7741   4.2411   4.4253   5.2400

          k = 0.0899 0.3635 0.2012 (  6011 PWs)   bands (ev):

   -30.9286 -13.6420 -13.2179 -12.4156 -11.2552 -10.4025   0.0386   1.1390
     4.0299   4.1892   4.6604   5.2587

          k = 0.0899 0.3635 0.3353 (  6013 PWs)   bands (ev):

   -30.9281 -13.6016 -13.2790 -12.4146 -11.2339 -10.4095   0.1454   0.8150
     4.1673   4.3657   4.7250   5.1565

          k = 0.0899 0.5712 0.0671 (  6018 PWs)   bands (ev):

   -30.8891 -14.0887 -12.6781 -12.5255 -11.4599 -10.3735   0.6136   1.0369
     3.1189   4.3750   4.5244   5.0321

          k = 0.0899 0.5712 0.2012 (  6017 PWs)   bands (ev):

   -30.8886 -14.0390 -12.7084 -12.5293 -11.5813 -10.2710   0.3277   1.0280
     3.5074   4.2591   4.5958   5.1184

          k = 0.0899 0.5712 0.3353 (  6023 PWs)   bands (ev):

[...]
        k(   59) = (  -0.2660711  -0.1536162  -0.2175101), wk =   0.0185185
        k(   60) = (  -0.2660711  -0.1536162  -0.3625168), wk =   0.0185185
        k(   61) = (  -0.4434518  -0.2560270  -0.0725034), wk =   0.0185185
        k(   62) = (  -0.4434518  -0.2560270  -0.2175101), wk =   0.0185185
        k(   63) = (  -0.4434518  -0.2560270  -0.3625168), wk =   0.0185185

     Dense  grid:    26553 G-vectors     FFT dimensions: (  40,  40,  45)

     Largest allocated arrays     est. size (Mb)     dimensions
        Kohn-Sham Wavefunctions         0.85 Mb     (   4667,   12)
        NL pseudopotentials             0.64 Mb     (   4667,    9)
        Each V/rho on FFT grid          1.10 Mb     (  72000)
        Each G-vector array             0.20 Mb     (  26553)
        G-vector shells                 0.01 Mb     (   1275)
     Largest temporary arrays     est. size (Mb)     dimensions
        Auxiliary wavefunctions         3.42 Mb     (   4667,   48)
        Each subspace H/S matrix        0.04 Mb     (  48,  48)
        Each <psi_i|beta_j> matrix      0.00 Mb     (      9,   12)
        Arrays for rho mixing          17.58 Mb     (  72000,  16)

     Initial potential from superposition of free atoms

     starting charge   21.99998, renormalised to   24.00000
     Starting wfc are   14 randomized atomic wfcs

     Writing output data file CaOH2_ambient.save

     total cpu time spent up to now is     4518.7 secs

     per-process dynamical memory:    20.8 Mb

     Self-consistent Calculation

     iteration #  1     ecut=   100.00 Ry     beta=0.30
     Davidson diagonalization with overlap
     ethr =  1.00E-06,  avg # of iterations =  6.1

     total cpu time spent up to now is     4562.5 secs

     total energy              =    -140.14080768 Ry
     Harris-Foulkes estimate   =    -140.21556404 Ry
     estimated scf accuracy    <       0.40853606 Ry

     iteration #  2     ecut=   100.00 Ry     beta=0.30
     Davidson diagonalization with overlap
     ethr =  1.70E-03,  avg # of iterations =  1.0

     total cpu time spent up to now is     4576.3 secs

     total energy              =    -139.98510302 Ry
     Harris-Foulkes estimate   =    -140.14405516 Ry
     estimated scf accuracy    <       0.25529608 Ry

     iteration #  3     ecut=   100.00 Ry     beta=0.30
     Davidson diagonalization with overlap
     ethr =  1.06E-03,  avg # of iterations =  2.0

     total cpu time spent up to now is     4593.3 secs

     total energy              =    -140.02390980 Ry
     Harris-Foulkes estimate   =    -140.02693178 Ry
     estimated scf accuracy    <       0.01090689 Ry

     iteration #  4     ecut=   100.00 Ry     beta=0.30
     Davidson diagonalization with overlap
     ethr =  4.54E-05,  avg # of iterations =  2.0

     total cpu time spent up to now is     4609.3 secs

     total energy              =    -140.02494990 Ry
     Harris-Foulkes estimate   =    -140.02523195 Ry
     estimated scf accuracy    <       0.00131166 Ry

     iteration #  5     ecut=   100.00 Ry     beta=0.30
     Davidson diagonalization with overlap
     ethr =  5.47E-06,  avg # of iterations =  1.6

     total cpu time spent up to now is     4623.6 secs

     total energy              =    -140.02486555 Ry
     Harris-Foulkes estimate   =    -140.02500372 Ry
     estimated scf accuracy    <       0.00038302 Ry

     iteration #  6     ecut=   100.00 Ry     beta=0.30
     Davidson diagonalization with overlap
     ethr =  1.60E-06,  avg # of iterations =  2.0

     total cpu time spent up to now is     4640.4 secs

     total energy              =    -140.02492798 Ry
     Harris-Foulkes estimate   =    -140.02492420 Ry
     estimated scf accuracy    <       0.00003766 Ry

     iteration #  7     ecut=   100.00 Ry     beta=0.30
     Davidson diagonalization with overlap
     ethr =  1.57E-07,  avg # of iterations =  2.0

     total cpu time spent up to now is     4657.3 secs

     total energy              =    -140.02493342 Ry
     Harris-Foulkes estimate   =    -140.02493245 Ry
     estimated scf accuracy    <       0.00001095 Ry

     iteration #  8     ecut=   100.00 Ry     beta=0.30
     Davidson diagonalization with overlap
     ethr =  4.56E-08,  avg # of iterations =  2.0

     total cpu time spent up to now is     4673.1 secs

     total energy              =    -140.02493367 Ry
     Harris-Foulkes estimate   =    -140.02493419 Ry
     estimated scf accuracy    <       0.00000129 Ry

     iteration #  9     ecut=   100.00 Ry     beta=0.30
     Davidson diagonalization with overlap
     ethr =  5.36E-09,  avg # of iterations =  2.6

     total cpu time spent up to now is     4691.8 secs

     total energy              =    -140.02493413 Ry
     Harris-Foulkes estimate   =    -140.02493421 Ry
     estimated scf accuracy    <       0.00000053 Ry

     iteration # 10     ecut=   100.00 Ry     beta=0.30
     Davidson diagonalization with overlap
     ethr =  2.22E-09,  avg # of iterations =  2.0

     total cpu time spent up to now is     4706.8 secs

     total energy              =    -140.02493412 Ry
     Harris-Foulkes estimate   =    -140.02493417 Ry
     estimated scf accuracy    <       0.00000012 Ry

     iteration # 11     ecut=   100.00 Ry     beta=0.30
     Davidson diagonalization with overlap
     ethr =  5.12E-10,  avg # of iterations =  2.0

     total cpu time spent up to now is     4724.1 secs

     End of self-consistent calculation

          k = 0.0887 0.1536 0.0725 (  4615 PWs)   bands (ev):

   -30.6931 -12.8215 -12.5315 -12.0221 -11.2152  -9.5000   0.6490   2.5485
     4.6880   4.8340   5.7833   6.2645

          k = 0.0887 0.1536 0.2175 (  4630 PWs)   bands (ev):

   -30.6912 -13.0838 -12.3816 -12.0198 -10.9375  -9.6701   0.7506   2.1015
     4.7515   5.1586   5.6687   6.1627

          k = 0.0887 0.1536 0.3625 (  4635 PWs)   bands (ev):

   -30.6893 -13.2470 -12.3198 -12.0175 -10.5592  -9.9518   0.9935   1.5532
     4.9934   5.3464   5.5753   5.9484

          k = 0.0887 0.3584 0.0725 (  4639 PWs)   bands (ev):

   -30.6501 -13.1266 -12.5411 -12.1126 -10.7246  -9.7918   1.0337   2.0147
     4.4715   4.7817   5.3331   6.1879

          k = 0.0887 0.3584 0.2175 (  4642 PWs)   bands (ev):

   -30.6486 -13.0058 -12.6991 -12.1088 -10.7980  -9.6697   0.8883   1.6406
     4.6461   4.8698   5.6331   6.2027

          k = 0.0887 0.3584 0.3625 (  4630 PWs)   bands (ev):

   -30.6471 -12.9248 -12.8083 -12.1060 -10.7661  -9.6853   0.8952   1.3153
     4.7403   5.0845   5.7616   6.0732

          k = 0.0887 0.5633 0.0725 (  4648 PWs)   bands (ev):

   -30.6183 -13.4292 -12.2742 -12.1924 -10.6367  -9.9034   1.3818   1.5942
     3.9205   4.8972   5.4257   6.0416

          k = 0.0887 0.5633 0.2175 (  4647 PWs)   bands (ev):

   -30.6171 -13.3424 -12.3137 -12.1958 -10.8718  -9.7272   1.0650   1.4673
     4.3744   4.7688   5.5655   6.1085

          k = 0.0887 0.5633 0.3625 (  4639 PWs)   bands (ev):

   -30.6158 -13.2620 -12.3358 -12.2026 -11.0257  -9.6505   0.8234   1.4029
     4.5998   4.9799   5.4852   6.1143

          k = 0.0887-0.4608 0.0725 (  4642 PWs)   bands (ev):

   -30.6300 -13.3557 -12.3518 -12.1616 -10.3800 -10.1597   1.3543   1.8081
     4.0445   4.9904   5.2693   5.9360

          k = 0.0887-0.4608 0.2175 (  4639 PWs)   bands (ev):

   -30.6286 -13.3013 -12.3939 -12.1620 -10.5384 -10.0355   1.3040   1.4643
     4.4961   4.9877   5.3205   5.8642

          k = 0.0887-0.4608 0.3625 (  4636 PWs)   bands (ev):

   -30.6273 -13.1941 -12.4908 -12.1564 -10.8125  -9.7732   0.9939   1.3117
     4.7524   5.1018   5.3764   5.9911

          k = 0.0887-0.2560 0.0725 (  4618 PWs)   bands (ev):

   -30.6732 -12.9480 -12.5973 -12.0642 -10.8780  -9.7151   0.8743   2.3405
     4.6497   4.9051   5.3777   6.1028

          k = 0.0887-0.2560 0.2175 (  4633 PWs)   bands (ev):

   -30.6715 -13.0471 -12.5709 -12.0616 -10.6921  -9.8312   0.9153   1.8947
     4.7493   5.2046   5.5196   5.8987

          k = 0.0887-0.2560 0.3625 (  4640 PWs)   bands (ev):

   -30.6698 -13.1061 -12.5778 -12.0583 -10.5515  -9.8981   1.0443   1.3633
     4.9896   5.1475   5.7177   5.8759

          k = 0.0887-0.0512 0.0725 (  4636 PWs)   bands (ev):

   -30.7046 -12.8517 -12.2941 -11.9996 -11.4905  -9.3879   0.5254   2.6696
     4.6889   4.7773   6.0797   6.3687

          k = 0.0887-0.0512 0.2175 (  4631 PWs)   bands (ev):

   -30.7026 -13.1433 -12.1644 -11.9976 -11.1244  -9.6044   0.6807   2.2342
     4.7851   5.0508   5.8476   6.2334

          k = 0.0887-0.0512 0.3625 (  4624 PWs)   bands (ev):

   -30.7006 -13.3344 -12.1179 -11.9958 -10.5992  -9.9990   0.9911   1.6794
     5.0475   5.3739   5.5666   5.8940

          k = 0.2661 0.4608 0.0725 (  4667 PWs)   bands (ev):

   -30.6184 -13.2325 -12.6173 -12.2045 -10.2933 -10.0808   1.3386   1.6483
     3.9286   4.9190   5.1280   6.2583

          k = 0.2661 0.4608 0.2175 (  4643 PWs)   bands (ev):

   -30.6171 -13.1561 -12.6321 -12.2279 -10.4918  -9.9572   1.2131   1.4353
     4.2686   4.9715   5.3350   6.0410

          k = 0.2661 0.4608 0.3625 (  4626 PWs)   bands (ev):

   -30.6158 -13.0629 -12.6656 -12.2466 -10.6296  -9.8976   1.0978   1.2615
     4.6379   5.0327   5.5400   5.7362

          k = 0.2661 0.6657 0.0725 (  4661 PWs)   bands (ev):

   -30.6099 -13.2022 -12.7365 -12.1889 -10.2245 -10.1026   1.4303   1.5010
     3.7866   4.9538   5.0974   6.3134

          k = 0.2661 0.6657 0.2175 (  4640 PWs)   bands (ev):

   -30.6086 -13.1425 -12.7123 -12.2145 -10.3909 -10.0503   1.2800   1.3971
     4.1165   5.0496   5.2308   6.0425

          k = 0.2661 0.6657 0.3625 (  4639 PWs)   bands (ev):

   -30.6075 -13.0710 -12.6965 -12.2393 -10.5354 -10.0224   1.1288   1.3134
     4.5521   5.1461   5.3223   5.6855

          k = 0.2661-0.3584 0.0725 (  4648 PWs)   bands (ev):

   -30.6332 -13.2143 -12.5239 -12.1877 -10.5081  -9.9380   1.2006   1.8280
     4.1907   4.8482   5.2166   6.2027

          k = 0.2661-0.3584 0.2175 (  4636 PWs)   bands (ev):

   -30.6318 -13.1138 -12.6168 -12.1916 -10.6615  -9.7958   1.0510   1.5235
     4.4970   4.8687   5.5252   6.0801

          k = 0.2661-0.3584 0.3625 (  4629 PWs)   bands (ev):

   -30.6304 -13.0077 -12.7133 -12.1935 -10.7274  -9.7564   0.9840   1.2685
     4.7202   4.9982   5.7397   5.8675

          k = 0.2661-0.1536 0.0725 (  4638 PWs)   bands (ev):

   -30.6648 -12.9892 -12.6138 -12.0633 -10.8750  -9.6862   0.8928   2.1868
     4.6790   4.7351   5.3981   6.2356

          k = 0.2661-0.1536 0.2175 (  4624 PWs)   bands (ev):

   -30.6631 -12.8904 -12.7760 -12.0605 -10.8499  -9.6299   0.8026   1.7672
     4.6670   4.9980   5.6137   6.2998

          k = 0.2661-0.1536 0.3625 (  4640 PWs)   bands (ev):

   -30.6615 -12.9903 -12.7279 -12.0580 -10.7257  -9.7109   0.8932   1.3674
     4.7740   5.1823   5.7482   6.1173

          k = 0.4435 0.7681 0.0725 (  4659 PWs)   bands (ev):

   -30.6130 -13.3478 -12.4857 -12.1979 -10.4250  -9.9950   1.4521   1.5128
     3.8319   4.9177   5.2359   6.1950

          k = 0.4435 0.7681 0.2175 (  4642 PWs)   bands (ev):

   -30.6117 -13.2768 -12.4764 -12.2252 -10.6257  -9.8871   1.1902   1.4437
     4.2175   4.9129   5.3747   6.0625

          k = 0.4435 0.7681 0.3625 (  4632 PWs)   bands (ev):

   -30.6105 -13.1991 -12.4671 -12.2531 -10.7913  -9.8203   0.9693   1.3834
     4.5804   5.0502   5.3688   5.8972

          k = 0.4435-0.2560 0.0725 (  4633 PWs)   bands (ev):

   -30.6246 -13.4146 -12.2863 -12.1260 -10.7311  -9.8508   1.2934   1.6709
     4.0326   4.8664   5.5364   5.9825

          k = 0.4435-0.2560 0.2175 (  4637 PWs)   bands (ev):

   -30.6232 -13.3147 -12.3624 -12.1226 -10.9649  -9.6416   0.9707   1.4820
     4.5102   4.6833   5.6775   6.1669

          k = 0.4435-0.2560 0.3625 (  4637 PWs)   bands (ev):

   -30.6219 -13.2369 -12.4105 -12.1194 -11.0756  -9.5848   0.7697   1.3846
     4.6095   4.9802   5.5828   6.2094

          k =-0.0887 0.3584-0.0725 (  4639 PWs)   bands (ev):

   -30.6501 -13.1804 -12.4841 -12.1145 -10.5567  -9.9854   1.1354   2.0802
     4.3863   4.9672   5.2050   5.9820

          k =-0.0887 0.3584-0.2175 (  4642 PWs)   bands (ev):

   -30.6486 -13.1570 -12.5398 -12.1119 -10.4872 -10.0343   1.1354   1.6632
     4.6981   5.0878   5.4105   5.7579

          k =-0.0887 0.3584-0.3625 (  4630 PWs)   bands (ev):

   -30.6471 -13.0630 -12.6652 -12.1074 -10.6404  -9.8390   1.1472   1.1803
     4.9301   5.0363   5.6484   5.8668

          k =-0.0887 0.5633-0.0725 (  4648 PWs)   bands (ev):

   -30.6183 -13.4418 -12.2542 -12.2010 -10.5368 -10.0134   1.4842   1.5765
     3.8765   4.9583   5.3717   5.9688

          k =-0.0887 0.5633-0.2175 (  4647 PWs)   bands (ev):

   -30.6171 -13.3723 -12.2650 -12.2157 -10.7533  -9.8673   1.2087   1.4589
     4.3498   4.8595   5.4246   5.9975

          k =-0.0887 0.5633-0.3625 (  4639 PWs)   bands (ev):

   -30.6158 -13.2803 -12.3080 -12.2119 -10.9822  -9.7055   0.8763   1.4084
     4.6362   5.0556   5.3278   6.0758

          k =-0.0887-0.4608-0.0725 (  4642 PWs)   bands (ev):

   -30.6300 -13.3197 -12.3914 -12.1570 -10.6583  -9.8562   1.2179   1.7549
     4.1375   4.8328   5.4034   6.1175

          k =-0.0887-0.4608-0.2175 (  4639 PWs)   bands (ev):

   -30.6286 -13.2116 -12.4934 -12.1538 -10.8571  -9.6628   0.9623   1.5042
     4.5206   4.7452   5.6488   6.1786

          k =-0.0887-0.4608-0.3625 (  4636 PWs)   bands (ev):

   -30.6273 -13.1340 -12.5572 -12.1527 -10.9224  -9.6344   0.8356   1.3401
     4.6418   4.9997   5.6617   6.1098

          k =-0.0887-0.2560-0.0725 (  4618 PWs)   bands (ev):

   -30.6732 -12.8853 -12.6621 -12.0637 -10.9236  -9.6565   0.8331   2.3090
     4.6936   4.8245   5.3848   6.2439

          k =-0.0887-0.2560-0.2175 (  4633 PWs)   bands (ev):

   -30.6715 -12.9595 -12.6623 -12.0606 -10.8057  -9.6920   0.8204   1.8675
     4.6969   5.1210   5.5495   6.1952

          k =-0.0887-0.2560-0.3625 (  4640 PWs)   bands (ev):

   -30.6698 -13.0737 -12.6119 -12.0579 -10.6288  -9.8081   0.9591   1.3945
     4.8651   5.2125   5.7189   6.0181

          k =-0.0887-0.0512-0.0725 (  4636 PWs)   bands (ev):

   -30.7046 -12.8584 -12.2865 -11.9998 -11.4869  -9.3941   0.5310   2.6742
     4.6885   4.7784   6.1882   6.2397

          k =-0.0887-0.0512-0.2175 (  4631 PWs)   bands (ev):

   -30.7026 -13.1492 -12.1582 -11.9979 -11.1118  -9.6204   0.6930   2.2408
     4.8037   5.0374   5.9032   6.1401

          k =-0.0887-0.0512-0.3625 (  4624 PWs)   bands (ev):

   -30.7006 -13.3364 -12.1160 -11.9959 -10.5818 -10.0180   0.9999   1.6795
     5.0869   5.3343   5.5689   5.8785

          k =-0.2661 0.6657-0.0725 (  4661 PWs)   bands (ev):

   -30.6099 -13.1974 -12.7416 -12.1887 -10.2770 -10.0482   1.4002   1.5184
     3.7930   4.9385   5.1122   6.3245

          k =-0.2661 0.6657-0.2175 (  4640 PWs)   bands (ev):

   -30.6086 -13.1309 -12.7249 -12.2137 -10.4370 -10.0004   1.2459   1.4090
     4.1208   5.0068   5.2843   6.0573

          k =-0.2661 0.6657-0.3625 (  4639 PWs)   bands (ev):

   -30.6075 -13.0637 -12.7045 -12.2387 -10.5519 -10.0040   1.1179   1.3145
     4.5460   5.0943   5.4244   5.6547

          k =-0.2661-0.3584-0.0725 (  4648 PWs)   bands (ev):

   -30.6332 -13.2362 -12.4985 -12.1906 -10.3682 -10.0899   1.2571   1.8521
     4.1519   4.9284   5.1447   6.1245

          k =-0.2661-0.3584-0.2175 (  4636 PWs)   bands (ev):

   -30.6318 -13.1725 -12.5496 -12.1976 -10.4967  -9.9857   1.1915   1.5133
     4.4978   4.9825   5.3687   5.9375

          k =-0.2661-0.3584-0.3625 (  4629 PWs)   bands (ev):

   -30.6304 -13.0579 -12.6584 -12.1964 -10.6673  -9.8295   1.0959   1.2131
     4.7886   5.0136   5.5805   5.8600

          k =-0.2661-0.1536-0.0725 (  4638 PWs)   bands (ev):

   -30.6648 -13.0734 -12.5268 -12.0636 -10.7491  -9.8405   0.9921   2.2597
     4.5544   4.9546   5.3410   5.9444

          k =-0.2661-0.1536-0.2175 (  4624 PWs)   bands (ev):

   -30.6631 -13.1132 -12.5469 -12.0611 -10.5582  -9.9797   1.0353   1.8180
     4.7699   5.2216   5.5507   5.6033

          k =-0.2661-0.1536-0.3625 (  4640 PWs)   bands (ev):

   -30.6615 -13.0914 -12.6232 -12.0583 -10.5727  -9.8934   1.1156   1.2692
     5.0377   5.0597   5.7488   5.7834

          k =-0.4435-0.2560-0.0725 (  4633 PWs)   bands (ev):

   -30.6246 -13.4416 -12.2629 -12.1262 -10.5229 -10.0796   1.4381   1.7073
     3.9408   5.0035   5.4255   5.8129

          k =-0.4435-0.2560-0.2175 (  4637 PWs)   bands (ev):

   -30.6232 -13.3796 -12.3010 -12.1229 -10.7146  -9.9369   1.2871   1.4504
     4.4535   4.8881   5.4030   5.8972

          k =-0.4435-0.2560-0.3625 (  4637 PWs)   bands (ev):

   -30.6219 -13.2775 -12.3695 -12.1195 -10.9859  -9.6993   0.8912   1.3852
     4.6920   5.1071   5.3091   6.0946

!    total energy              =    -140.02493414 Ry
     Harris-Foulkes estimate   =    -140.02493414 Ry
     estimated scf accuracy    <          6.7E-09 Ry

     The total energy is the sum of the following terms:

     one-electron contribution =     -39.30146181 Ry
     hartree contribution      =      31.88966626 Ry
     xc contribution           =     -26.23239431 Ry
     ewald contribution        =    -106.38074427 Ry

     convergence has been achieved in  11 iterations

     Forces acting on atoms (Ry/au):

     atom    1 type  3   force =     0.00000000    0.00000000    0.00000000
     atom    2 type  2   force =    -0.00000000    0.00000000    0.00034193
     atom    3 type  2   force =    -0.00000000   -0.00000000   -0.00034193
     atom    4 type  1   force =    -0.00000000   -0.00000000   -0.00000853
     atom    5 type  1   force =     0.00000000    0.00000000    0.00000853

     Total force =     0.000484     Total SCF correction =     0.000016


     entering subroutine stress ...

          total   stress  (Ry/bohr**3)                   (kbar)     P=  298.49
   0.00202772   0.00000000   0.00000000        298.29      0.00      0.00
   0.00000000   0.00202772  -0.00000000          0.00    298.29     -0.00
   0.00000000   0.00000000   0.00203177          0.00      0.00    298.88


     Writing output data file CaOH2_ambient.save

     init_run     :     63.41s CPU     63.85s WALL (       2 calls)
     electrons    :   2896.64s CPU   2946.34s WALL (      15 calls)
     update_pot   :    771.75s CPU    780.12s WALL (      13 calls)
     forces       :    289.24s CPU    290.60s WALL (      15 calls)
     stress       :    646.30s CPU    648.49s WALL (      15 calls)

     Called by init_run:
     wfcinit      :     18.51s CPU     18.65s WALL (       2 calls)
     potinit      :     20.82s CPU     20.86s WALL (       2 calls)

     Called by electrons:
     c_bands      :   2435.99s CPU   2475.49s WALL (     136 calls)
     sum_band     :    415.95s CPU    424.82s WALL (     136 calls)
     v_of_rho     :     21.05s CPU     21.43s WALL (     149 calls)
     mix_rho      :     24.78s CPU     25.51s WALL (     136 calls)

     Called by c_bands:
     init_us_2    :     82.09s CPU     85.45s WALL (   19152 calls)
     cegterg      :   2393.40s CPU   2405.57s WALL (    8568 calls)

     Called by *egterg:
     h_psi        :   1831.79s CPU   1840.76s WALL (   27407 calls)
     g_psi        :     16.46s CPU     16.59s WALL (   18713 calls)
     cdiaghg      :     12.91s CPU     13.09s WALL (   26336 calls)

     Called by h_psi:
     add_vuspsi   :     47.95s CPU     48.27s WALL (   27407 calls)

     General routines
     calbec       :     55.38s CPU     55.79s WALL (   29297 calls)
     fft          :      6.13s CPU      6.15s WALL (    1761 calls)
     ffts         :     10.45s CPU     10.54s WALL (    3003 calls)
     fftw         :   1678.33s CPU   1684.75s WALL (  663416 calls)
     davcio       :      4.88s CPU     35.28s WALL (   27720 calls)


     PWSCF        :     1h17m CPU        1h18m WALL


   This run was terminated on:   2:48:21  19Apr2014            

=------------------------------------------------------------------------------=
   JOB DONE.
=------------------------------------------------------------------------------=
