
     Program PWSCF v.5.0.2 (svn rev. 9392) starts on 20Apr2014 at  3:39: 4 

     This program is part of the open-source Quantum ESPRESSO suite
     for quantum simulation of materials; please cite
         "P. Giannozzi et al., J. Phys.:Condens. Matter 21 395502 (2009);
          URL http://www.quantum-espresso.org", 
     in publications or presentations arising from this work. More details at
     http://www.quantum-espresso.org/quote.php

     Serial version

     Current dimensions of program PWSCF are:
     Max number of different atomic species (ntypx) = 10
     Max number of k-points (npk) =  40000
     Max angular momentum in pseudopotentials (lmaxx) =  3
     Waiting for input...
     Reading input from standard input

     G-vector sticks info
     --------------------
     sticks:   dense  smooth     PW     G-vecs:    dense   smooth      PW
     Sum         913     913    337                26035    26035    5883



     bravais-lattice index     =            4
     lattice parameter (alat)  =       6.3764  a.u.
     unit-cell volume          =     269.4254 (a.u.)^3
     number of atoms/cell      =            5
     number of atomic types    =            3
     number of electrons       =        24.00
     number of Kohn-Sham states=           12
     kinetic-energy cutoff     =     100.0000  Ry
     charge density cutoff     =     320.0000  Ry
     convergence threshold     =      1.0E-06
     mixing beta               =       0.3000
     number of iterations used =           16  local-TF  mixing
     Exchange-correlation      = PBE ( 1 4 3 4 0)
     EXX-fraction              =        0.00
     nstep                     =           50


     celldm(1)=   6.376400  celldm(2)=   0.000000  celldm(3)=   1.200000
     celldm(4)=   0.000000  celldm(5)=   0.000000  celldm(6)=   0.000000

     crystal axes: (cart. coord. in units of alat)
               a(1) = (   1.000000   0.000000   0.000000 )  
               a(2) = (  -0.500000   0.866025   0.000000 )  
               a(3) = (   0.000000   0.000000   1.200000 )  

     reciprocal axes: (cart. coord. in units 2 pi/alat)
               b(1) = (  1.000000  0.577350 -0.000000 )  
               b(2) = (  0.000000  1.154701  0.000000 )  
               b(3) = (  0.000000 -0.000000  0.833333 )  


     PseudoPot. # 1 for H  read from file:
     /home/ilia/espresso/pseudo/H.pbe-sp-mt.ncpp
     MD5 check sum: 7a641936b52ccecd26bd1ad87cca5aed
     Pseudo is Norm-conserving, Zval =  1.0
     Generated by old ld1 code (numerical format)
     Using radial grid of 1076 points,  0 beta functions with: 

     PseudoPot. # 2 for O  read from file:
     /home/ilia/espresso/pseudo/O.pbe-sp-mt.ncpp
     MD5 check sum: 8a3d23d410d2f3ebfd0a39faacc72cbb
     Pseudo is Norm-conserving, Zval =  6.0
     Generated by old ld1 code (numerical format)
     Using radial grid of 1130 points,  1 beta functions with: 
                l(1) =   1

     PseudoPot. # 3 for Ca read from file:
     /home/ilia/espresso/pseudo/Ca.pbe-sp-mt_ion2.ncpp
     MD5 check sum: 4bcd670d05521f7b178fdf0a334578ab
     Pseudo is Norm-conserving, Zval = 10.0
     Generated by old ld1 code (numerical format)
     Using radial grid of 1153 points,  1 beta functions with: 
                l(1) =   1

     atomic species   valence    mass     pseudopotential
        H              1.00     1.00700     H ( 1.00)
        O              6.00    16.00000     O ( 1.00)
        Ca            10.00    40.07800     Ca( 1.00)

      6 Sym. Ops. (no inversion) found



   Cartesian axes

     site n.     atom                  positions (alat units)
         1           Ca  tau(   1) = (   0.0000000   0.0000000   0.0000000  )
         2           O   tau(   2) = (   0.0000000   0.5773503   0.3444000  )
         3           O   tau(   3) = (   0.5000000   0.2886751   0.8544000  )
         4           H   tau(   4) = (   0.0000000   0.5773503   0.8088000  )
         5           H   tau(   5) = (   0.5000000   0.2886751   0.3900000  )

     number of k points=    63
                       cart. coord. in units 2pi/alat
        k(    1) = (   0.0833333   0.1443376   0.0694444), wk =   0.0370370
        k(    2) = (   0.0833333   0.1443376   0.2083333), wk =   0.0370370
        k(    3) = (   0.0833333   0.1443376   0.3472222), wk =   0.0370370
        k(    4) = (   0.0833333   0.3367877   0.0694444), wk =   0.0370370
        k(    5) = (   0.0833333   0.3367877   0.2083333), wk =   0.0370370
        k(    6) = (   0.0833333   0.3367877   0.3472222), wk =   0.0370370
        k(    7) = (   0.0833333   0.5292377   0.0694444), wk =   0.0370370
        k(    8) = (   0.0833333   0.5292377   0.2083333), wk =   0.0370370
        k(    9) = (   0.0833333   0.5292377   0.3472222), wk =   0.0370370
        k(   10) = (   0.0833333  -0.4330127   0.0694444), wk =   0.0370370
        k(   11) = (   0.0833333  -0.4330127   0.2083333), wk =   0.0370370
        k(   12) = (   0.0833333  -0.4330127   0.3472222), wk =   0.0370370
        k(   13) = (   0.0833333  -0.2405626   0.0694444), wk =   0.0370370
        k(   14) = (   0.0833333  -0.2405626   0.2083333), wk =   0.0370370
        k(   15) = (   0.0833333  -0.2405626   0.3472222), wk =   0.0370370
        k(   16) = (   0.0833333  -0.0481125   0.0694444), wk =   0.0185185
        k(   17) = (   0.0833333  -0.0481125   0.2083333), wk =   0.0185185
        k(   18) = (   0.0833333  -0.0481125   0.3472222), wk =   0.0185185
        k(   19) = (   0.2500000   0.4330127   0.0694444), wk =   0.0370370
        k(   20) = (   0.2500000   0.4330127   0.2083333), wk =   0.0370370
        k(   21) = (   0.2500000   0.4330127   0.3472222), wk =   0.0370370
        k(   22) = (   0.2500000   0.6254628   0.0694444), wk =   0.0370370
        k(   23) = (   0.2500000   0.6254628   0.2083333), wk =   0.0370370
        k(   24) = (   0.2500000   0.6254628   0.3472222), wk =   0.0370370
        k(   25) = (   0.2500000  -0.3367877   0.0694444), wk =   0.0370370
        k(   26) = (   0.2500000  -0.3367877   0.2083333), wk =   0.0370370
        k(   27) = (   0.2500000  -0.3367877   0.3472222), wk =   0.0370370
        k(   28) = (   0.2500000  -0.1443376   0.0694444), wk =   0.0185185
        k(   29) = (   0.2500000  -0.1443376   0.2083333), wk =   0.0185185
        k(   30) = (   0.2500000  -0.1443376   0.3472222), wk =   0.0185185
        k(   31) = (   0.4166667   0.7216878   0.0694444), wk =   0.0370370
        k(   32) = (   0.4166667   0.7216878   0.2083333), wk =   0.0370370
        k(   33) = (   0.4166667   0.7216878   0.3472222), wk =   0.0370370
        k(   34) = (   0.4166667  -0.2405626   0.0694444), wk =   0.0185185
        k(   35) = (   0.4166667  -0.2405626   0.2083333), wk =   0.0185185
        k(   36) = (   0.4166667  -0.2405626   0.3472222), wk =   0.0185185
        k(   37) = (  -0.0833333  -0.3367877   0.0694444), wk =   0.0370370
        k(   38) = (  -0.0833333  -0.3367877   0.2083333), wk =   0.0370370
        k(   39) = (  -0.0833333  -0.3367877   0.3472222), wk =   0.0370370
        k(   40) = (  -0.0833333  -0.5292377   0.0694444), wk =   0.0370370
        k(   41) = (  -0.0833333  -0.5292377   0.2083333), wk =   0.0370370
        k(   42) = (  -0.0833333  -0.5292377   0.3472222), wk =   0.0370370
        k(   43) = (  -0.0833333   0.4330127   0.0694444), wk =   0.0370370
        k(   44) = (  -0.0833333   0.4330127   0.2083333), wk =   0.0370370
        k(   45) = (  -0.0833333   0.4330127   0.3472222), wk =   0.0370370
        k(   46) = (  -0.0833333   0.2405626   0.0694444), wk =   0.0370370
        k(   47) = (  -0.0833333   0.2405626   0.2083333), wk =   0.0370370
        k(   48) = (  -0.0833333   0.2405626   0.3472222), wk =   0.0370370
        k(   49) = (  -0.0833333   0.0481125   0.0694444), wk =   0.0185185
        k(   50) = (  -0.0833333   0.0481125   0.2083333), wk =   0.0185185
        k(   51) = (  -0.0833333   0.0481125   0.3472222), wk =   0.0185185
        k(   52) = (  -0.2500000  -0.6254628   0.0694444), wk =   0.0370370
        k(   53) = (  -0.2500000  -0.6254628   0.2083333), wk =   0.0370370
        k(   54) = (  -0.2500000  -0.6254628   0.3472222), wk =   0.0370370
        k(   55) = (  -0.2500000   0.3367877   0.0694444), wk =   0.0370370
        k(   56) = (  -0.2500000   0.3367877   0.2083333), wk =   0.0370370
        k(   57) = (  -0.2500000   0.3367877   0.3472222), wk =   0.0370370
        k(   58) = (  -0.2500000   0.1443376   0.0694444), wk =   0.0185185
        k(   59) = (  -0.2500000   0.1443376   0.2083333), wk =   0.0185185
        k(   60) = (  -0.2500000   0.1443376   0.3472222), wk =   0.0185185
        k(   61) = (  -0.4166667   0.2405626   0.0694444), wk =   0.0185185
        k(   62) = (  -0.4166667   0.2405626   0.2083333), wk =   0.0185185
        k(   63) = (  -0.4166667   0.2405626   0.3472222), wk =   0.0185185

     Dense  grid:    26035 G-vectors     FFT dimensions: (  40,  40,  45)

     Largest allocated arrays     est. size (Mb)     dimensions
        Kohn-Sham Wavefunctions         0.84 Mb     (   4568,   12)
        NL pseudopotentials             0.63 Mb     (   4568,    9)
        Each V/rho on FFT grid          1.10 Mb     (  72000)
        Each G-vector array             0.20 Mb     (  26035)
        G-vector shells                 0.20 Mb     (  26035)
     Largest temporary arrays     est. size (Mb)     dimensions
        Auxiliary wavefunctions         3.35 Mb     (   4568,   48)
        Each subspace H/S matrix        0.04 Mb     (  48,  48)
        Each <psi_i|beta_j> matrix      0.00 Mb     (      9,   12)
        Arrays for rho mixing          17.58 Mb     (  72000,  16)

     Initial potential from superposition of free atoms

     starting charge   21.99998, renormalised to   24.00000
     Starting wfc are   14 randomized atomic wfcs

     total cpu time spent up to now is       42.0 secs

     per-process dynamical memory:    16.1 Mb

     Self-consistent Calculation

     iteration #  1     ecut=   100.00 Ry     beta=0.30
     Davidson diagonalization with overlap
     ethr =  1.00E-02,  avg # of iterations =  2.0

     total cpu time spent up to now is       64.5 secs

     total energy              =    -139.77634174 Ry
     Harris-Foulkes estimate   =    -139.85804412 Ry
     estimated scf accuracy    <       0.41024085 Ry

     iteration #  2     ecut=   100.00 Ry     beta=0.30
     Davidson diagonalization with overlap
     ethr =  1.71E-03,  avg # of iterations =  1.0

     total cpu time spent up to now is       78.6 secs

     total energy              =    -139.63487091 Ry
     Harris-Foulkes estimate   =    -139.78381823 Ry
     estimated scf accuracy    <       0.24598472 Ry

     iteration #  3     ecut=   100.00 Ry     beta=0.30
     Davidson diagonalization with overlap
     ethr =  1.02E-03,  avg # of iterations =  2.0

     total cpu time spent up to now is       95.5 secs

     total energy              =    -139.66005940 Ry
     Harris-Foulkes estimate   =    -139.67208858 Ry
     estimated scf accuracy    <       0.02531608 Ry

     iteration #  4     ecut=   100.00 Ry     beta=0.30
     Davidson diagonalization with overlap
     ethr =  1.05E-04,  avg # of iterations =  2.6

     total cpu time spent up to now is      114.0 secs

     total energy              =    -139.66468097 Ry
     Harris-Foulkes estimate   =    -139.66513041 Ry
     estimated scf accuracy    <       0.00279394 Ry

     iteration #  5     ecut=   100.00 Ry     beta=0.30
     Davidson diagonalization with overlap
     ethr =  1.16E-05,  avg # of iterations =  1.4

     total cpu time spent up to now is      128.1 secs

     total energy              =    -139.66423540 Ry
     Harris-Foulkes estimate   =    -139.66480842 Ry
     estimated scf accuracy    <       0.00166243 Ry

     iteration #  6     ecut=   100.00 Ry     beta=0.30
     Davidson diagonalization with overlap
     ethr =  6.93E-06,  avg # of iterations =  2.3

     total cpu time spent up to now is      144.9 secs

     total energy              =    -139.66440168 Ry
     Harris-Foulkes estimate   =    -139.66443825 Ry
     estimated scf accuracy    <       0.00010275 Ry

     iteration #  7     ecut=   100.00 Ry     beta=0.30
     Davidson diagonalization with overlap
     ethr =  4.28E-07,  avg # of iterations =  3.0

     total cpu time spent up to now is      164.1 secs

     total energy              =    -139.66443076 Ry
     Harris-Foulkes estimate   =    -139.66442904 Ry
     estimated scf accuracy    <       0.00001136 Ry

     iteration #  8     ecut=   100.00 Ry     beta=0.30
     Davidson diagonalization with overlap
     ethr =  4.74E-08,  avg # of iterations =  3.0

     total cpu time spent up to now is      184.6 secs

     total energy              =    -139.66443154 Ry
     Harris-Foulkes estimate   =    -139.66443566 Ry
     estimated scf accuracy    <       0.00001227 Ry

     iteration #  9     ecut=   100.00 Ry     beta=0.30
     Davidson diagonalization with overlap
     ethr =  4.74E-08,  avg # of iterations =  2.2

     total cpu time spent up to now is      201.7 secs

     End of self-consistent calculation

          k = 0.0833 0.1443 0.0694 (  4531 PWs)   bands (ev):

   -30.6285 -12.5270 -12.2661 -11.9733  -9.7029  -7.7872   3.1512   4.3234
     5.1207   5.6082   6.3512   6.7386

          k = 0.0833 0.1443 0.2083 (  4541 PWs)   bands (ev):

   -30.6263 -12.6738 -12.2191 -11.9706  -9.4047  -7.9853   2.8059   3.8746
     5.2115   5.7011   6.3846   6.7923

          k = 0.0833 0.1443 0.3472 (  4548 PWs)   bands (ev):

   -30.6241 -12.7900 -12.1934 -11.9678  -8.9788  -8.3217   2.7602   3.1581
     5.5089   5.9285   6.2047   6.6346

          k = 0.0833 0.3368 0.0694 (  4545 PWs)   bands (ev):

   -30.5845 -12.8141 -12.3257 -12.0637  -9.0859  -8.0574   2.9674   3.0700
     5.0117   5.7206   6.2936   6.7136

          k = 0.0833 0.3368 0.2083 (  4549 PWs)   bands (ev):

   -30.5827 -12.7496 -12.4129 -12.0598  -9.1353  -7.9584   2.2770   2.7477
     5.0082   6.2525   6.6569   6.7307

          k = 0.0833 0.3368 0.3472 (  4546 PWs)   bands (ev):

   -30.5808 -12.7007 -12.4842 -12.0565  -9.0814  -7.9923   2.0170   2.3833
     5.1104   6.3459   6.6439   6.9178

          k = 0.0833 0.5292 0.0694 (  4557 PWs)   bands (ev):

   -30.5520 -13.1266 -12.1654 -12.1208  -8.8172  -8.1666   2.2092   2.9822
     5.0207   5.9845   6.1338   6.5307

          k = 0.0833 0.5292 0.2083 (  4553 PWs)   bands (ev):

   -30.5504 -13.0690 -12.1865 -12.1311  -9.0356  -7.9765   1.8888   2.4821
     4.9698   6.2179   6.5143   6.7844

          k = 0.0833 0.5292 0.3472 (  4556 PWs)   bands (ev):

   -30.5489 -13.0148 -12.2108 -12.1328  -9.1642  -7.8910   1.6048   2.1898
     4.9347   6.4721   6.6697   6.8760

          k = 0.0833-0.4330 0.0694 (  4549 PWs)   bands (ev):

   -30.5639 -13.0309 -12.2086 -12.1071  -8.6369  -8.4247   2.5414   3.2563
     4.9818   5.6205   6.2835   6.4076

          k = 0.0833-0.4330 0.2083 (  4548 PWs)   bands (ev):

   -30.5623 -12.9869 -12.2452 -12.1070  -8.7612  -8.3209   2.2507   2.7083
     5.1713   5.8748   6.3989   6.5909

          k = 0.0833-0.4330 0.3472 (  4557 PWs)   bands (ev):

   -30.5606 -12.9224 -12.3022 -12.1019  -9.0289  -8.0456   1.8912   2.2337
     5.1035   6.2490   6.6953   6.7544

          k = 0.0833-0.2406 0.0694 (  4535 PWs)   bands (ev):

   -30.6081 -12.5866 -12.3981 -12.0157  -9.3347  -7.9830   3.1401   3.8806
     5.0614   5.4655   6.2909   6.5965

          k = 0.0833-0.2406 0.2083 (  4532 PWs)   bands (ev):

   -30.6061 -12.6390 -12.4056 -12.0126  -9.1294  -8.1232   2.6682   3.3935
     5.2840   5.8281   6.2313   6.7210

          k = 0.0833-0.2406 0.3472 (  4555 PWs)   bands (ev):

   -30.6041 -12.6797 -12.4197 -12.0090  -8.9335  -8.2470   2.4802   2.7143
     5.5276   5.8340   6.4060   6.8524

          k = 0.0833-0.0481 0.0694 (  4547 PWs)   bands (ev):

   -30.6402 -12.5714 -12.0701 -11.9505  -9.9432  -7.6838   3.1216   4.7377
     5.0798   5.6109   6.5275   6.8535

          k = 0.0833-0.0481 0.2083 (  4538 PWs)   bands (ev):

   -30.6379 -12.7285 -12.0473 -11.9481  -9.5743  -7.9284   2.9272   4.2624
     5.1894   5.5405   6.5085   6.7041

          k = 0.0833-0.0481 0.3472 (  4540 PWs)   bands (ev):

   -30.6356 -12.8610 -12.0325 -11.9458  -9.0254  -8.3728   3.0007   3.4788
     5.4784   5.9826   6.1091   6.3326

          k = 0.2500 0.4330 0.0694 (  4559 PWs)   bands (ev):

   -30.5520 -12.9426 -12.4169 -12.1253  -8.5756  -8.3321   2.6762   2.7091
     4.3952   5.9319   6.2653   6.7553

          k = 0.2500 0.4330 0.2083 (  4556 PWs)   bands (ev):

   -30.5505 -12.8921 -12.4112 -12.1555  -8.7519  -8.2095   2.2678   2.3438
     4.6764   6.2321   6.4839   6.6715

          k = 0.2500 0.4330 0.3472 (  4549 PWs)   bands (ev):

   -30.5489 -12.8372 -12.4115 -12.1823  -8.8759  -8.1413   1.9826   2.0194
     4.9722   6.1159   6.6174   6.8650

          k = 0.2500 0.6255 0.0694 (  4559 PWs)   bands (ev):

   -30.5433 -12.9260 -12.5315 -12.1008  -8.4655  -8.3704   2.5023   2.6761
     4.2099   6.0834   6.2207   6.7897

          k = 0.2500 0.6255 0.2083 (  4568 PWs)   bands (ev):

   -30.5418 -12.8824 -12.5086 -12.1298  -8.6249  -8.2987   2.1943   2.3175
     4.5023   6.2778   6.5049   6.6412

          k = 0.2500 0.6255 0.3472 (  4556 PWs)   bands (ev):

   -30.5403 -12.8349 -12.4876 -12.1584  -8.7555  -8.2557   1.9154   2.0406
     4.8909   6.0530   6.6750   6.7646

          k = 0.2500-0.3368 0.0694 (  4544 PWs)   bands (ev):

   -30.5671 -12.9110 -12.3114 -12.1329  -8.8270  -8.1943   2.8016   2.8926
     4.7120   5.7939   6.2653   6.7387

          k = 0.2500-0.3368 0.2083 (  4551 PWs)   bands (ev):

   -30.5655 -12.8520 -12.3563 -12.1413  -8.9573  -8.0637   2.2465   2.5215
     4.8883   6.2809   6.4834   6.7063

          k = 0.2500-0.3368 0.3472 (  4549 PWs)   bands (ev):

   -30.5638 -12.7948 -12.4037 -12.1447  -9.0079  -8.0273   1.9477   2.1845
     5.0597   6.2236   6.6261   6.9368

          k = 0.2500-0.1443 0.0694 (  4543 PWs)   bands (ev):

   -30.5995 -12.6726 -12.3848 -12.0152  -9.2848  -7.9596   3.0596   3.3553
     5.1049   5.6686   6.3742   6.7165

          k = 0.2500-0.1443 0.2083 (  4539 PWs)   bands (ev):

   -30.5975 -12.6088 -12.4934 -12.0119  -9.2342  -7.9345   2.3994   3.0025
     5.0418   6.1539   6.7361   6.7750

          k = 0.2500-0.1443 0.3472 (  4560 PWs)   bands (ev):

   -30.5956 -12.6183 -12.5278 -12.0089  -9.0767  -8.0487   2.1983   2.5767
     5.1518   6.4473   6.5815   6.7761

          k = 0.4167 0.7217 0.0694 (  4568 PWs)   bands (ev):

   -30.5465 -13.0549 -12.3326 -12.1102  -8.6394  -8.2619   2.3211   2.8441
     4.5701   6.0571   6.1527   6.6737

          k = 0.4167 0.7217 0.2083 (  4565 PWs)   bands (ev):

   -30.5450 -13.0046 -12.3189 -12.1408  -8.8283  -8.1377   2.0346   2.4172
     4.7438   6.1729   6.4833   6.7442

          k = 0.4167 0.7217 0.3472 (  4544 PWs)   bands (ev):

   -30.5434 -12.9526 -12.3043 -12.1715  -8.9752  -8.0574   1.7469   2.1280
     4.9217   6.2117   6.7178   6.7745

          k = 0.4167-0.2406 0.0694 (  4549 PWs)   bands (ev):

   -30.5584 -13.1091 -12.1663 -12.0789  -8.9186  -8.1129   2.2543   3.0208
     5.2071   6.0154   6.1198   6.4646

          k = 0.4167-0.2406 0.2083 (  4544 PWs)   bands (ev):

   -30.5567 -13.0468 -12.2149 -12.0749  -9.1354  -7.8949   1.8637   2.5075
     5.0276   6.2857   6.6428   6.7602

          k = 0.4167-0.2406 0.3472 (  4565 PWs)   bands (ev):

   -30.5552 -12.9940 -12.2537 -12.0710  -9.2240  -7.8347   1.5920   2.2224
     4.9500   6.5717   6.6840   6.9253

          k =-0.0833-0.3368 0.0694 (  4545 PWs)   bands (ev):

   -30.5845 -12.8365 -12.3047 -12.0650  -8.9440  -8.2258   2.9206   3.5197
     4.9501   5.4923   6.2976   6.4730

          k =-0.0833-0.3368 0.2083 (  4549 PWs)   bands (ev):

   -30.5827 -12.8077 -12.3577 -12.0621  -8.8477  -8.3006   2.5118   2.9651
     5.2811   5.8341   6.2731   6.6052

          k =-0.0833-0.3368 0.3472 (  4546 PWs)   bands (ev):

   -30.5808 -12.7446 -12.4417 -12.0574  -8.9513  -8.1504   2.2486   2.3184
     5.3031   6.0453   6.5769   6.8439

          k =-0.0833-0.5292 0.0694 (  4557 PWs)   bands (ev):

   -30.5520 -13.1317 -12.1582 -12.1240  -8.7025  -8.2944   2.2501   3.0785
     5.0192   5.8114   6.2135   6.4488

          k =-0.0833-0.5292 0.2083 (  4553 PWs)   bands (ev):

   -30.5504 -13.0806 -12.1667 -12.1417  -8.9082  -8.1303   1.9913   2.5637
     5.0451   6.0218   6.4768   6.6864

          k =-0.0833-0.5292 0.3472 (  4556 PWs)   bands (ev):

   -30.5489 -13.0214 -12.2021 -12.1362  -9.1175  -7.9511   1.6613   2.2062
     4.9769   6.3693   6.7159   6.7841

          k =-0.0833 0.4330 0.0694 (  4549 PWs)   bands (ev):

   -30.5639 -13.0162 -12.2235 -12.1040  -8.9132  -8.1189   2.4720   2.9709
     5.0125   5.9212   6.1893   6.6273

          k =-0.0833 0.4330 0.2083 (  4548 PWs)   bands (ev):

   -30.5623 -12.9529 -12.2789 -12.1018  -9.0969  -7.9251   2.0012   2.5146
     4.9604   6.3418   6.5499   6.8084

          k =-0.0833 0.4330 0.3472 (  4557 PWs)   bands (ev):

   -30.5606 -12.9019 -12.3222 -12.0997  -9.1466  -7.8972   1.7313   2.2235
     4.9817   6.5388   6.5891   6.9444

          k =-0.0833 0.2406 0.0694 (  4535 PWs)   bands (ev):

   -30.6081 -12.5506 -12.4331 -12.0153  -9.3743  -7.9316   3.1084   3.6998
     5.0399   5.5820   6.3426   6.7536

          k =-0.0833 0.2406 0.2083 (  4532 PWs)   bands (ev):

   -30.6061 -12.5756 -12.4671 -12.0119  -9.2298  -7.9986   2.5660   3.2514
     5.0971   6.0163   6.5567   6.7606

          k =-0.0833 0.2406 0.3472 (  4555 PWs)   bands (ev):

   -30.6041 -12.6572 -12.4413 -12.0087  -9.0086  -8.1595   2.3941   2.7129
     5.2984   6.1202   6.5508   6.7765

          k =-0.0833 0.0481 0.0694 (  4547 PWs)   bands (ev):

   -30.6402 -12.5734 -12.0684 -11.9506  -9.9394  -7.6893   3.1331   4.7121
     5.1702   5.5932   6.5534   6.7187

          k =-0.0833 0.0481 0.2083 (  4538 PWs)   bands (ev):

   -30.6379 -12.7312 -12.0449 -11.9484  -9.5636  -7.9424   2.9430   4.3028
     5.2965   5.4480   6.3578   6.7549

          k =-0.0833 0.0481 0.3472 (  4540 PWs)   bands (ev):

   -30.6355 -12.8621 -12.0316 -11.9459  -9.0109  -8.3890   3.0049   3.4961
     5.6404   5.8316   5.9361   6.4686

          k =-0.2500-0.6255 0.0694 (  4559 PWs)   bands (ev):

   -30.5433 -12.9241 -12.5333 -12.1008  -8.5267  -8.3071   2.4945   2.6622
     4.2177   6.1071   6.1987   6.8102

          k =-0.2500-0.6255 0.2083 (  4568 PWs)   bands (ev):

   -30.5418 -12.8782 -12.5127 -12.1296  -8.6743  -8.2451   2.1720   2.3096
     4.4992   6.3452   6.4522   6.6712

          k =-0.2500-0.6255 0.3472 (  4556 PWs)   bands (ev):

   -30.5403 -12.8325 -12.4900 -12.1582  -8.7731  -8.2360   1.9032   2.0409
     4.8773   6.0923   6.6493   6.7806

          k =-0.2500 0.3368 0.0694 (  4544 PWs)   bands (ev):

   -30.5671 -12.9198 -12.3017 -12.1349  -8.7103  -8.3239   2.7625   3.0986
     4.6612   5.7106   6.2982   6.6212

          k =-0.2500 0.3368 0.2083 (  4551 PWs)   bands (ev):

   -30.5655 -12.8733 -12.3324 -12.1460  -8.7950  -8.2520   2.3745   2.5908
     4.9643   6.0394   6.5296   6.5463

          k =-0.2500 0.3368 0.3472 (  4549 PWs)   bands (ev):

   -30.5638 -12.8089 -12.3884 -12.1469  -8.9451  -8.1034   2.0746   2.1324
     5.1462   6.0489   6.6677   6.8744

          k =-0.2500 0.1443 0.0694 (  4543 PWs)   bands (ev):

   -30.5995 -12.7104 -12.3499 -12.0155  -9.1773  -8.0947   3.0815   3.7955
     5.2048   5.3159   6.2868   6.4267

          k =-0.2500 0.1443 0.2083 (  4539 PWs)   bands (ev):

   -30.5975 -12.7176 -12.3897 -12.0125  -8.9752  -8.2503   2.6376   3.2938
     5.5544   5.5972   6.1062   6.6635

          k =-0.2500 0.1443 0.3472 (  4560 PWs)   bands (ev):

   -30.5956 -12.6917 -12.4568 -12.0091  -8.9226  -8.2321   2.4222   2.5437
     5.4073   6.1513   6.2486   6.8681

          k =-0.4167 0.2406 0.0694 (  4549 PWs)   bands (ev):

   -30.5584 -13.1202 -12.1580 -12.0791  -8.6848  -8.3743   2.3337   3.2525
     5.3290   5.5052   6.2720   6.3077

          k =-0.4167 0.2406 0.2083 (  4544 PWs)   bands (ev):

   -30.5567 -13.0720 -12.1952 -12.0752  -8.8686  -8.2177   2.0816   2.6914
     5.2172   5.9365   6.3833   6.6182

          k =-0.4167 0.2406 0.3472 (  4565 PWs)   bands (ev):

   -30.5552 -13.0086 -12.2418 -12.0712  -9.1282  -7.9590   1.7187   2.2522
     5.0280   6.5605   6.5711   6.7378

!    total energy              =    -139.66443263 Ry
     Harris-Foulkes estimate   =    -139.66443299 Ry
     estimated scf accuracy    <       0.00000055 Ry

     The total energy is the sum of the following terms:

     one-electron contribution =     -31.97812452 Ry
     hartree contribution      =      28.59564857 Ry
     xc contribution           =     -25.69828264 Ry
     ewald contribution        =    -110.58367403 Ry

     convergence has been achieved in   9 iterations

     Forces acting on atoms (Ry/au):

     atom    1 type  3   force =     0.00000000    0.00000000   -0.00064417
     atom    2 type  2   force =     0.00000000   -0.00000000    0.04775560
     atom    3 type  2   force =     0.00000000    0.00000000   -0.04751270
     atom    4 type  1   force =     0.00000000    0.00000000   -0.14509409
     atom    5 type  1   force =     0.00000000   -0.00000000    0.14549537

     Total force =     0.216240     Total SCF correction =     0.001227


     entering subroutine stress ...

          total   stress  (Ry/bohr**3)                   (kbar)     P=  146.36
   0.00154714   0.00000000   0.00000000        227.59      0.00      0.00
   0.00000000   0.00154714  -0.00000000          0.00    227.59     -0.00
   0.00000000  -0.00000000  -0.00010946          0.00     -0.00    -16.10


     BFGS Geometry Optimization

     number of scf cycles    =   1
     number of bfgs steps    =   0

     enthalpy new            =    -138.3823707574 Ry

     new trust radius        =       0.3995185113 bohr
     new conv_thr            =       0.0000010000 Ry

     new unit-cell volume =    200.16546 a.u.^3 (    29.66146 Ang^3 )

CELL_PARAMETERS (alat=  6.37640000)
   0.919715816  -0.000000000  -0.000000000
  -0.459857908   0.796497261  -0.000000000
   0.000000000  -0.000000000   1.053960986

ATOMIC_POSITIONS (crystal)
Ca      -0.000000000  -0.000000000  -0.000084187
O        0.333333333   0.666666667   0.293241191
O        0.666666667   0.333333333   0.705790554
H        0.333333333   0.666666667   0.655037617
H        0.666666667   0.333333333   0.344014826



     Writing output data file CaOH2_ambient.save
     NEW-OLD atomic charge density approx. for the potential
     NEW k-points:
        k(    1) = (   0.0906077   0.1569371   0.0790668), wk =   0.0370370
        k(    2) = (   0.0906077   0.1569371   0.2372004), wk =   0.0370370
        k(    3) = (   0.0906077   0.1569371   0.3953341), wk =   0.0370370
        k(    4) = (   0.0906077   0.3661867   0.0790668), wk =   0.0370370
        k(    5) = (   0.0906077   0.3661867   0.2372004), wk =   0.0370370
        k(    6) = (   0.0906077   0.3661867   0.3953341), wk =   0.0370370
        k(    7) = (   0.0906077   0.5754362   0.0790668), wk =   0.0370370
        k(    8) = (   0.0906077   0.5754362   0.2372004), wk =   0.0370370
        k(    9) = (   0.0906077   0.5754362   0.3953341), wk =   0.0370370
        k(   10) = (   0.0906077  -0.4708114   0.0790668), wk =   0.0370370
        k(   11) = (   0.0906077  -0.4708114   0.2372004), wk =   0.0370370
        k(   12) = (   0.0906077  -0.4708114   0.3953341), wk =   0.0370370
        k(   13) = (   0.0906077  -0.2615619   0.0790668), wk =   0.0370370
        k(   14) = (   0.0906077  -0.2615619   0.2372004), wk =   0.0370370
        k(   15) = (   0.0906077  -0.2615619   0.3953341), wk =   0.0370370
        k(   16) = (   0.0906077  -0.0523124   0.0790668), wk =   0.0185185
        k(   17) = (   0.0906077  -0.0523124   0.2372004), wk =   0.0185185
        k(   18) = (   0.0906077  -0.0523124   0.3953341), wk =   0.0185185
        k(   19) = (   0.2718231   0.4708114   0.0790668), wk =   0.0370370
        k(   20) = (   0.2718231   0.4708114   0.2372004), wk =   0.0370370
        k(   21) = (   0.2718231   0.4708114   0.3953341), wk =   0.0370370
        k(   22) = (   0.2718231   0.6800609   0.0790668), wk =   0.0370370
        k(   23) = (   0.2718231   0.6800609   0.2372004), wk =   0.0370370
        k(   24) = (   0.2718231   0.6800609   0.3953341), wk =   0.0370370
        k(   25) = (   0.2718231  -0.3661867   0.0790668), wk =   0.0370370
        k(   26) = (   0.2718231  -0.3661867   0.2372004), wk =   0.0370370
        k(   27) = (   0.2718231  -0.3661867   0.3953341), wk =   0.0370370
        k(   28) = (   0.2718231  -0.1569371   0.0790668), wk =   0.0185185
        k(   29) = (   0.2718231  -0.1569371   0.2372004), wk =   0.0185185
        k(   30) = (   0.2718231  -0.1569371   0.3953341), wk =   0.0185185
        k(   31) = (   0.4530385   0.7846857   0.0790668), wk =   0.0370370
        k(   32) = (   0.4530385   0.7846857   0.2372004), wk =   0.0370370
        k(   33) = (   0.4530385   0.7846857   0.3953341), wk =   0.0370370
        k(   34) = (   0.4530385  -0.2615619   0.0790668), wk =   0.0185185
        k(   35) = (   0.4530385  -0.2615619   0.2372004), wk =   0.0185185
        k(   36) = (   0.4530385  -0.2615619   0.3953341), wk =   0.0185185
        k(   37) = (  -0.0906077  -0.3661867   0.0790668), wk =   0.0370370
        k(   38) = (  -0.0906077  -0.3661867   0.2372004), wk =   0.0370370
        k(   39) = (  -0.0906077  -0.3661867   0.3953341), wk =   0.0370370
        k(   40) = (  -0.0906077  -0.5754362   0.0790668), wk =   0.0370370
        k(   41) = (  -0.0906077  -0.5754362   0.2372004), wk =   0.0370370
        k(   42) = (  -0.0906077  -0.5754362   0.3953341), wk =   0.0370370
        k(   43) = (  -0.0906077   0.4708114   0.0790668), wk =   0.0370370
        k(   44) = (  -0.0906077   0.4708114   0.2372004), wk =   0.0370370
        k(   45) = (  -0.0906077   0.4708114   0.3953341), wk =   0.0370370
        k(   46) = (  -0.0906077   0.2615619   0.0790668), wk =   0.0370370
        k(   47) = (  -0.0906077   0.2615619   0.2372004), wk =   0.0370370
        k(   48) = (  -0.0906077   0.2615619   0.3953341), wk =   0.0370370
        k(   49) = (  -0.0906077   0.0523124   0.0790668), wk =   0.0185185
        k(   50) = (  -0.0906077   0.0523124   0.2372004), wk =   0.0185185
        k(   51) = (  -0.0906077   0.0523124   0.3953341), wk =   0.0185185
        k(   52) = (  -0.2718231  -0.6800609   0.0790668), wk =   0.0370370
        k(   53) = (  -0.2718231  -0.6800609   0.2372004), wk =   0.0370370
        k(   54) = (  -0.2718231  -0.6800609   0.3953341), wk =   0.0370370
        k(   55) = (  -0.2718231   0.3661867   0.0790668), wk =   0.0370370
        k(   56) = (  -0.2718231   0.3661867   0.2372004), wk =   0.0370370
        k(   57) = (  -0.2718231   0.3661867   0.3953341), wk =   0.0370370
        k(   58) = (  -0.2718231   0.1569371   0.0790668), wk =   0.0185185
        k(   59) = (  -0.2718231   0.1569371   0.2372004), wk =   0.0185185
        k(   60) = (  -0.2718231   0.1569371   0.3953341), wk =   0.0185185
        k(   61) = (  -0.4530385   0.2615619   0.0790668), wk =   0.0185185
        k(   62) = (  -0.4530385   0.2615619   0.2372004), wk =   0.0185185
        k(   63) = (  -0.4530385   0.2615619   0.3953341), wk =   0.0185185
     extrapolated charge   16.38771, renormalised to   24.00000

     total cpu time spent up to now is      297.9 secs

     per-process dynamical memory:    21.2 Mb

     Self-consistent Calculation

     iteration #  1     ecut=   100.00 Ry     beta=0.30
     Davidson diagonalization with overlap
     ethr =  1.00E-06,  avg # of iterations =  7.1

     total cpu time spent up to now is      342.3 secs

     total energy              =    -136.93865703 Ry
     Harris-Foulkes estimate   =    -144.52732103 Ry
     estimated scf accuracy    <       6.50450884 Ry

     iteration #  2     ecut=   100.00 Ry     beta=0.30
     Davidson diagonalization with overlap
     ethr =  1.00E-02,  avg # of iterations =  3.0

     total cpu time spent up to now is      365.0 secs

     total energy              =    -139.57075684 Ry
     Harris-Foulkes estimate   =    -139.62034736 Ry
     estimated scf accuracy    <       0.27837287 Ry

     iteration #  3     ecut=   100.00 Ry     beta=0.30
     Davidson diagonalization with overlap
     ethr =  1.16E-03,  avg # of iterations =  1.0

     total cpu time spent up to now is      378.9 secs

     total energy              =    -139.47072242 Ry
     Harris-Foulkes estimate   =    -139.57734044 Ry
     estimated scf accuracy    <       0.17252730 Ry

     iteration #  4     ecut=   100.00 Ry     beta=0.30
     Davidson diagonalization with overlap
     ethr =  7.19E-04,  avg # of iterations =  2.1

     total cpu time spent up to now is      398.9 secs

     total energy              =    -139.50257782 Ry
     Harris-Foulkes estimate   =    -139.50950351 Ry
     estimated scf accuracy    <       0.02104086 Ry

     iteration #  5     ecut=   100.00 Ry     beta=0.30
     Davidson diagonalization with overlap
     ethr =  8.77E-05,  avg # of iterations =  2.2

     total cpu time spent up to now is      416.7 secs

     total energy              =    -139.50312618 Ry
     Harris-Foulkes estimate   =    -139.50587836 Ry
     estimated scf accuracy    <       0.00505404 Ry

     iteration #  6     ecut=   100.00 Ry     beta=0.30
     Davidson diagonalization with overlap
     ethr =  2.11E-05,  avg # of iterations =  3.0

     total cpu time spent up to now is      438.1 secs

     total energy              =    -139.50319170 Ry
     Harris-Foulkes estimate   =    -139.50489385 Ry
     estimated scf accuracy    <       0.00434133 Ry

     iteration #  7     ecut=   100.00 Ry     beta=0.30
     Davidson diagonalization with overlap
     ethr =  1.81E-05,  avg # of iterations =  2.0

     total cpu time spent up to now is      455.2 secs

     total energy              =    -139.50355373 Ry
     Harris-Foulkes estimate   =    -139.50368853 Ry
     estimated scf accuracy    <       0.00023405 Ry

     iteration #  8     ecut=   100.00 Ry     beta=0.30
     Davidson diagonalization with overlap
     ethr =  9.75E-07,  avg # of iterations =  3.0

     total cpu time spent up to now is      476.7 secs

     total energy              =    -139.50362324 Ry
     Harris-Foulkes estimate   =    -139.50363356 Ry
     estimated scf accuracy    <       0.00003381 Ry

     iteration #  9     ecut=   100.00 Ry     beta=0.30
     Davidson diagonalization with overlap
     ethr =  1.41E-07,  avg # of iterations =  2.0

     total cpu time spent up to now is      493.7 secs

     total energy              =    -139.50362634 Ry
     Harris-Foulkes estimate   =    -139.50362666 Ry
     estimated scf accuracy    <       0.00000325 Ry

     iteration # 10     ecut=   100.00 Ry     beta=0.30
     Davidson diagonalization with overlap
     ethr =  1.35E-08,  avg # of iterations =  1.0

     total cpu time spent up to now is      507.6 secs

     total energy              =    -139.50362563 Ry
     Harris-Foulkes estimate   =    -139.50362641 Ry
     estimated scf accuracy    <       0.00000232 Ry

     iteration # 11     ecut=   100.00 Ry     beta=0.30
     Davidson diagonalization with overlap
     ethr =  9.68E-09,  avg # of iterations =  2.0

     total cpu time spent up to now is      523.9 secs

     End of self-consistent calculation

          k = 0.0906 0.1569 0.0791 (  4531 PWs)   bands (ev):

   -25.8522  -8.7379  -8.1219  -7.0593  -6.0401  -3.0348   6.0298   7.5405
     8.3946   9.2756  10.5462  11.1419

          k = 0.0906 0.1569 0.2372 (  4541 PWs)   bands (ev):

   -25.8355  -9.3101  -7.8196  -7.0451  -5.4941  -3.3013   5.5602   7.1163
     8.5155   9.4496  10.3735  11.1709

          k = 0.0906 0.1569 0.3953 (  4548 PWs)   bands (ev):

   -25.8187  -9.6732  -7.6882  -7.0305  -4.7624  -3.8013   5.4941   6.2255
     8.9404   9.5968  10.2181  10.8868

          k = 0.0906 0.3662 0.0791 (  4545 PWs)   bands (ev):

   -25.7140  -9.4470  -8.0000  -7.2845  -5.2177  -3.5649   5.8878   6.1404
     8.4031  10.0817  10.2745  11.1565

          k = 0.0906 0.3662 0.2372 (  4549 PWs)   bands (ev):

   -25.7009  -9.2056  -8.4272  -7.2649  -5.2702  -3.2573   4.9560   5.6799
     8.2692  10.4519  11.0571  11.2137

          k = 0.0906 0.3662 0.3953 (  4546 PWs)   bands (ev):

   -25.6876  -8.9042  -8.8259  -7.2457  -5.2398  -3.2588   4.6241   5.3063
     8.3339  10.3361  11.1198  11.4953

          k = 0.0906 0.5754 0.0791 (  4557 PWs)   bands (ev):

   -25.6094  -9.9802  -7.6376  -7.3602  -5.2136  -3.6414   5.0033   6.1276
     8.4773   9.8767  10.6905  11.1329

          k = 0.0906 0.5754 0.2372 (  4553 PWs)   bands (ev):

   -25.5990  -9.7466  -7.7461  -7.4330  -5.6155  -3.4171   4.7976   5.3887
     8.2859  10.2892  11.0491  11.4337

          k = 0.0906 0.5754 0.3953 (  4556 PWs)   bands (ev):

   -25.5886  -9.4910  -7.8482  -7.4602  -6.0105  -3.3114   4.2665   5.3953
     8.0946  10.7476  11.2290  11.3442

          k = 0.0906-0.4708 0.0791 (  4549 PWs)   bands (ev):

   -25.6480  -9.8380  -7.6556  -7.3869  -4.7970  -4.1734   5.6234   6.4656
     8.4528   9.6972  10.4763  10.7627

          k = 0.0906-0.4708 0.2372 (  4548 PWs)   bands (ev):

   -25.6366  -9.6716  -7.8055  -7.4094  -5.0487  -4.0620   5.4842   5.6978
     8.6252   9.8656  10.6903  10.9358

          k = 0.0906-0.4708 0.3953 (  4557 PWs)   bands (ev):

   -25.6251  -9.3839  -8.1522  -7.3715  -5.5459  -3.5346   4.6401   5.4077
     8.3460  10.4008  11.0442  11.2584

          k = 0.0906-0.2616 0.0791 (  4535 PWs)   bands (ev):

   -25.7887  -9.1018  -8.0797  -7.1703  -5.4815  -3.4920   6.1767   7.0840
     8.5219   9.5134  10.1885  10.8817

          k = 0.0906-0.2616 0.2372 (  4532 PWs)   bands (ev):

   -25.7736  -9.2619  -8.1452  -7.1537  -5.0706  -3.6762   5.5535   6.5619
     8.7467   9.7336  10.2331  11.0179

          k = 0.0906-0.2616 0.3953 (  4555 PWs)   bands (ev):

   -25.7585  -9.4018  -8.2057  -7.1323  -4.7830  -3.7056   5.2169   5.6860
     8.9829   9.5040  10.6083  11.2947

          k = 0.0906-0.0523 0.0791 (  4547 PWs)   bands (ev):

   -25.8884  -8.6678  -7.8457  -7.0001  -6.4945  -2.7844   5.9330   7.9602
     8.2588   8.9716  10.8803  11.3195

          k = 0.0906-0.0523 0.2372 (  4538 PWs)   bands (ev):

   -25.8708  -9.4028  -7.3977  -6.9877  -5.8672  -3.1493   5.6816   7.5714
     8.4201   9.0894  10.5534  11.0463

          k = 0.0906-0.0523 0.3953 (  4540 PWs)   bands (ev):

   -25.8531  -9.8308  -7.2613  -6.9763  -4.8909  -3.8790   5.8033   6.6544
     8.8772   9.8078   9.8667  10.3742

          k = 0.2718 0.4708 0.0791 (  4559 PWs)   bands (ev):

   -25.6100  -9.6397  -8.3651  -7.3679  -4.3996  -4.0246   5.5684   5.7368
     7.6036  10.3510  10.5113  11.4154

          k = 0.2718 0.4708 0.2372 (  4556 PWs)   bands (ev):

   -25.5995  -9.4310  -8.3349  -7.5160  -4.8779  -3.8753   5.1908   5.3637
     8.0742  10.5326  10.6091  11.3486

          k = 0.2718 0.4708 0.3953 (  4549 PWs)   bands (ev):

   -25.5890  -9.1520  -8.3885  -7.6237  -5.2443  -3.8696   4.9724   5.0363
     8.4532  10.3318  10.8259  11.3930

          k = 0.2718 0.6801 0.0791 (  4559 PWs)   bands (ev):

   -25.5817  -9.5775  -8.6694  -7.2998  -4.2800  -3.9986   5.3984   5.5894
     7.3561  10.4890  10.6162  11.5467

          k = 0.2718 0.6801 0.2372 (  4568 PWs)   bands (ev):

   -25.5720  -9.3899  -8.5499  -7.4350  -4.7409  -4.0666   5.1967   5.3320
     7.8554  10.5159  10.8085  11.3079

          k = 0.2718 0.6801 0.3953 (  4556 PWs)   bands (ev):

   -25.5622  -9.1568  -8.4419  -7.5670  -5.1837  -4.1757   4.9236   5.2297
     8.4128  10.4183  10.8370  11.1428

          k = 0.2718-0.3662 0.0791 (  4544 PWs)   bands (ev):

   -25.6585  -9.6074  -8.0455  -7.4171  -4.8151  -3.8042   5.6985   5.9814
     8.0585  10.0802  10.4411  11.2775

          k = 0.2718-0.3662 0.2372 (  4551 PWs)   bands (ev):

   -25.6468  -9.3711  -8.2674  -7.4725  -5.1003  -3.5351   5.0692   5.4649
     8.2620  10.4713  10.7762  11.2924

          k = 0.2718-0.3662 0.3953 (  4549 PWs)   bands (ev):

   -25.6351  -9.0467  -8.5811  -7.4771  -5.2787  -3.4873   4.7305   5.1311
     8.4197  10.2588  11.0353  11.5318

          k = 0.2718-0.1569 0.0791 (  4543 PWs)   bands (ev):

   -25.7615  -9.2058  -8.1200  -7.1587  -5.4719  -3.3851   5.9700   6.4487
     8.4240  10.0255  10.2659  11.1531

          k = 0.2718-0.1569 0.2372 (  4539 PWs)   bands (ev):

   -25.7471  -9.0727  -8.5021  -7.1405  -5.3215  -3.1728   5.0227   5.9764
     8.2397  10.3551  10.9516  11.3222

          k = 0.2718-0.1569 0.3953 (  4560 PWs)   bands (ev):

   -25.7327  -9.1838  -8.5337  -7.1244  -5.1075  -3.2792   4.7729   5.4960
     8.3387  10.3950  11.0075  11.2739

          k = 0.4530 0.7847 0.0791 (  4568 PWs)   bands (ev):

   -25.5918  -9.8369  -8.1588  -7.3232  -4.7315  -3.7975   5.1643   5.8815
     7.8457  10.1848  10.6808  11.3517

          k = 0.4530 0.7847 0.2372 (  4565 PWs)   bands (ev):

   -25.5818  -9.6292  -8.0891  -7.4656  -5.1832  -3.7464   5.0519   5.3574
     8.1317  10.2309  10.9477  11.3862

          k = 0.4530 0.7847 0.3953 (  4544 PWs)   bands (ev):

   -25.5718  -9.3835  -8.0113  -7.6103  -5.6419  -3.7209   4.5835   5.3588
     8.2829  10.5453  11.0724  11.1651

          k = 0.4530-0.2616 0.0791 (  4549 PWs)   bands (ev):

   -25.6300  -9.9527  -7.5344  -7.3121  -5.4074  -3.5639   5.0353   6.1751
     8.7143   9.8568  10.7555  10.9332

          k = 0.4530-0.2616 0.2372 (  4544 PWs)   bands (ev):

   -25.6191  -9.6983  -7.8522  -7.2897  -5.7286  -3.2189   4.6496   5.3900
     8.2680  10.4299  11.2014  11.4173

          k = 0.4530-0.2616 0.3953 (  4565 PWs)   bands (ev):

   -25.6081  -9.4387  -8.0710  -7.2682  -6.0114  -3.1272   4.1658   5.3557
     8.0314  10.7682  11.3486  11.4599

          k =-0.0906-0.3662 0.0791 (  4545 PWs)   bands (ev):

   -25.7140  -9.5210  -7.8667  -7.2970  -4.9527  -4.0106   6.0845   6.7156
     8.4825   9.5650  10.3051  10.7014

          k =-0.0906-0.3662 0.2372 (  4549 PWs)   bands (ev):

   -25.7008  -9.4326  -8.0896  -7.2837  -4.7725  -4.1235   5.6405   6.0219
     8.8042   9.7766  10.4770  10.7948

          k =-0.0906-0.3662 0.3953 (  4546 PWs)   bands (ev):

   -25.6876  -9.2185  -8.4583  -7.2531  -5.0713  -3.6164   5.0287   5.3169
     8.6399   9.9435  10.9271  11.3293

          k =-0.0906-0.5754 0.0791 (  4557 PWs)   bands (ev):

   -25.6094  -9.9985  -7.5960  -7.3650  -5.0863  -3.8537   5.1577   6.2665
     8.4770   9.7999  10.5703  11.0161

          k =-0.0906-0.5754 0.2372 (  4553 PWs)   bands (ev):

   -25.5990  -9.7964  -7.5564  -7.5250  -5.4826  -3.7252   5.0826   5.5422
     8.4184  10.0485  10.8970  11.2243

          k =-0.0906-0.5754 0.3953 (  4556 PWs)   bands (ev):

   -25.5886  -9.5286  -7.7374  -7.5011  -5.9825  -3.4335   4.3614   5.4870
     8.1609  10.6734  11.0887  11.2902

          k =-0.0906 0.4708 0.0791 (  4549 PWs)   bands (ev):

   -25.6480  -9.7863  -7.7749  -7.3641  -5.1756  -3.6013   5.2882   6.0658
     8.4465   9.9719  10.6475  11.1178

          k =-0.0906 0.4708 0.2372 (  4548 PWs)   bands (ev):

   -25.6366  -9.5226  -8.1021  -7.3640  -5.4662  -3.2466   4.7427   5.3984
     8.2401  10.4690  11.0916  11.4427

          k =-0.0906 0.4708 0.3953 (  4557 PWs)   bands (ev):

   -25.6252  -9.2499  -8.3627  -7.3534  -5.6543  -3.2199   4.3604   5.2560
     8.1546  10.6566  11.1708  11.5341

          k =-0.0906 0.2616 0.0791 (  4535 PWs)   bands (ev):

   -25.7887  -9.0326  -8.1796  -7.1666  -5.5365  -3.3484   6.0397   6.8550
     8.3742   9.7610  10.2351  11.1787

          k =-0.0906 0.2616 0.2372 (  4532 PWs)   bands (ev):

   -25.7736  -9.1427  -8.3156  -7.1478  -5.2398  -3.3335   5.2765   6.3112
     8.3619  10.1119  10.6820  11.1826

          k =-0.0906 0.2616 0.3953 (  4555 PWs)   bands (ev):

   -25.7585  -9.3561  -8.2741  -7.1298  -4.9111  -3.4906   5.0350   5.6570
     8.6091   9.9319  10.8841  11.1853

          k =-0.0906 0.0523 0.0791 (  4547 PWs)   bands (ev):

   -25.8884  -8.6859  -7.8162  -7.0013  -6.4979  -2.8012   5.9627   7.9045
     8.4152   8.9085  11.0490  11.0494

          k =-0.0906 0.0523 0.2372 (  4538 PWs)   bands (ev):

   -25.8708  -9.4121  -7.3747  -6.9899  -5.8581  -3.1896   5.7204   7.6402
     8.6545   8.8754  10.3711  11.0811

          k =-0.0906 0.0523 0.3953 (  4540 PWs)   bands (ev):

   -25.8531  -9.8336  -7.2540  -6.9774  -4.8615  -3.9216   5.8125   6.6927
     9.1623   9.5598   9.5849  10.5719

          k =-0.2718-0.6801 0.0791 (  4559 PWs)   bands (ev):

   -25.5817  -9.5701  -8.6789  -7.2998  -4.3696  -3.8957   5.3189   5.6216
     7.3721  10.4539  10.6501  11.5869

          k =-0.2718-0.6801 0.2372 (  4568 PWs)   bands (ev):

   -25.5720  -9.3697  -8.5773  -7.4334  -4.8118  -3.9708   5.1871   5.2668
     7.8539  10.5386  10.8498  11.3261

          k =-0.2718-0.6801 0.3953 (  4556 PWs)   bands (ev):

   -25.5622  -9.1411  -8.4643  -7.5639  -5.2040  -4.1435   4.9406   5.1831
     8.3853  10.5621  10.7486  11.1461

          k =-0.2718 0.3662 0.0791 (  4544 PWs)   bands (ev):

   -25.6585  -9.6381  -7.9866  -7.4270  -4.5438  -4.1585   5.8648   6.1588
     7.9871  10.0216  10.4014  11.0652

          k =-0.2718 0.3662 0.2372 (  4551 PWs)   bands (ev):

   -25.6468  -9.4638  -8.1023  -7.5046  -4.8472  -3.9563   5.4514   5.5427
     8.4193  10.1431  10.6696  11.0686

          k =-0.2718 0.3662 0.3953 (  4549 PWs)   bands (ev):

   -25.6351  -9.1605  -8.4301  -7.4923  -5.2036  -3.6472   4.8746   5.1736
     8.5741  10.0079  11.0265  11.4370

          k =-0.2718 0.1569 0.0791 (  4543 PWs)   bands (ev):

   -25.7615  -9.3156  -7.9501  -7.1608  -5.3043  -3.7527   6.2283   7.0255
     8.8130   9.2900  10.2314  10.5642

          k =-0.2718 0.1569 0.2372 (  4539 PWs)   bands (ev):

   -25.7471  -9.3595  -8.1088  -7.1448  -4.8631  -4.0301   5.6829   6.4891
     9.1171   9.4757  10.0526  10.8915

          k =-0.2718 0.1569 0.3953 (  4560 PWs)   bands (ev):

   -25.7327  -9.3348  -8.3332  -7.1265  -4.8771  -3.7121   5.2345   5.5035
     8.7284  10.0205  10.4254  11.3439

          k =-0.4530 0.2616 0.0791 (  4549 PWs)   bands (ev):

   -25.6300  -9.9915  -7.4513  -7.3131  -5.1586  -3.9954   5.3301   6.5356
     8.9529   9.3686  10.4289  10.8193

          k =-0.4530 0.2616 0.2372 (  4544 PWs)   bands (ev):

   -25.6190  -9.8061  -7.6346  -7.2917  -5.4550  -3.8760   5.2798   5.7114
     8.5762   9.9999  10.7171  11.0031

          k =-0.4530 0.2616 0.3953 (  4565 PWs)   bands (ev):

   -25.6081  -9.5244  -7.9159  -7.2692  -5.9524  -3.3932   4.4059   5.5189
     8.1485  10.8134  11.0636  11.1434

!    total energy              =    -139.50362571 Ry
     Harris-Foulkes estimate   =    -139.50362587 Ry
     estimated scf accuracy    <       0.00000021 Ry

     The total energy is the sum of the following terms:

     one-electron contribution =     -14.47343138 Ry
     hartree contribution      =      23.86017113 Ry
     xc contribution           =     -26.45252897 Ry
     ewald contribution        =    -122.43783650 Ry

     convergence has been achieved in  11 iterations

     Forces acting on atoms (Ry/au):

     atom    1 type  3   force =    -0.00000000   -0.00000000   -0.00089761
     atom    2 type  2   force =     0.00000000    0.00000000    0.10156531
     atom    3 type  2   force =     0.00000000    0.00000000   -0.10097104
     atom    4 type  1   force =     0.00000000   -0.00000000   -0.19597238
     atom    5 type  1   force =     0.00000000    0.00000000    0.19627572

     Total force =     0.312155     Total SCF correction =     0.000065


     entering subroutine stress ...

          total   stress  (Ry/bohr**3)                   (kbar)     P= 1042.43
   0.00840593   0.00000000   0.00000000       1236.56      0.00      0.00
   0.00000000   0.00840593  -0.00000000          0.00   1236.56     -0.00
   0.00000000  -0.00000000   0.00444694          0.00     -0.00    654.17


     number of scf cycles    =   2
     number of bfgs steps    =   1

     enthalpy old            =    -138.3823707574 Ry
     enthalpy new            =    -138.5511375615 Ry

     CASE: enthalpy_new < enthalpy_old

     new trust radius        =       0.1777345452 bohr
     new conv_thr            =       0.0000010000 Ry

     new unit-cell volume =    201.63176 a.u.^3 (    29.87874 Ang^3 )

CELL_PARAMETERS (alat=  6.37640000)
   0.951746161   0.000000000  -0.000000000
  -0.475873081   0.824236354  -0.000000000
   0.000000000  -0.000000000   0.991423893

ATOMIC_POSITIONS (crystal)
Ca       0.000000000  -0.000000000  -0.000204075
O        0.333333333   0.666666667   0.305551366
O        0.666666667   0.333333333   0.693550583
H        0.333333333   0.666666667   0.628640583
H        0.666666667   0.333333333   0.370461543



     Writing output data file CaOH2_ambient.save
     NEW-OLD atomic charge density approx. for the potential
     NEW k-points:
        k(    1) = (   0.0875584   0.1516555   0.0840542), wk =   0.0370370
        k(    2) = (   0.0875584   0.1516555   0.2521626), wk =   0.0370370
        k(    3) = (   0.0875584   0.1516555   0.4202710), wk =   0.0370370
        k(    4) = (   0.0875584   0.3538629   0.0840542), wk =   0.0370370
        k(    5) = (   0.0875584   0.3538629   0.2521626), wk =   0.0370370
        k(    6) = (   0.0875584   0.3538629   0.4202710), wk =   0.0370370
        k(    7) = (   0.0875584   0.5560703   0.0840542), wk =   0.0370370
        k(    8) = (   0.0875584   0.5560703   0.2521626), wk =   0.0370370
        k(    9) = (   0.0875584   0.5560703   0.4202710), wk =   0.0370370
        k(   10) = (   0.0875584  -0.4549666   0.0840542), wk =   0.0370370
        k(   11) = (   0.0875584  -0.4549666   0.2521626), wk =   0.0370370
        k(   12) = (   0.0875584  -0.4549666   0.4202710), wk =   0.0370370
        k(   13) = (   0.0875584  -0.2527592   0.0840542), wk =   0.0370370
        k(   14) = (   0.0875584  -0.2527592   0.2521626), wk =   0.0370370
        k(   15) = (   0.0875584  -0.2527592   0.4202710), wk =   0.0370370
        k(   16) = (   0.0875584  -0.0505518   0.0840542), wk =   0.0185185
        k(   17) = (   0.0875584  -0.0505518   0.2521626), wk =   0.0185185
        k(   18) = (   0.0875584  -0.0505518   0.4202710), wk =   0.0185185
        k(   19) = (   0.2626751   0.4549666   0.0840542), wk =   0.0370370
        k(   20) = (   0.2626751   0.4549666   0.2521626), wk =   0.0370370
        k(   21) = (   0.2626751   0.4549666   0.4202710), wk =   0.0370370
        k(   22) = (   0.2626751   0.6571740   0.0840542), wk =   0.0370370
        k(   23) = (   0.2626751   0.6571740   0.2521626), wk =   0.0370370
        k(   24) = (   0.2626751   0.6571740   0.4202710), wk =   0.0370370
        k(   25) = (   0.2626751  -0.3538629   0.0840542), wk =   0.0370370
        k(   26) = (   0.2626751  -0.3538629   0.2521626), wk =   0.0370370
        k(   27) = (   0.2626751  -0.3538629   0.4202710), wk =   0.0370370
        k(   28) = (   0.2626751  -0.1516555   0.0840542), wk =   0.0185185
        k(   29) = (   0.2626751  -0.1516555   0.2521626), wk =   0.0185185
        k(   30) = (   0.2626751  -0.1516555   0.4202710), wk =   0.0185185
        k(   31) = (   0.4377918   0.7582776   0.0840542), wk =   0.0370370
        k(   32) = (   0.4377918   0.7582776   0.2521626), wk =   0.0370370
        k(   33) = (   0.4377918   0.7582776   0.4202710), wk =   0.0370370
        k(   34) = (   0.4377918  -0.2527592   0.0840542), wk =   0.0185185
        k(   35) = (   0.4377918  -0.2527592   0.2521626), wk =   0.0185185
        k(   36) = (   0.4377918  -0.2527592   0.4202710), wk =   0.0185185
        k(   37) = (  -0.0875584  -0.3538629   0.0840542), wk =   0.0370370
        k(   38) = (  -0.0875584  -0.3538629   0.2521626), wk =   0.0370370
        k(   39) = (  -0.0875584  -0.3538629   0.4202710), wk =   0.0370370
        k(   40) = (  -0.0875584  -0.5560703   0.0840542), wk =   0.0370370
        k(   41) = (  -0.0875584  -0.5560703   0.2521626), wk =   0.0370370
        k(   42) = (  -0.0875584  -0.5560703   0.4202710), wk =   0.0370370
        k(   43) = (  -0.0875584   0.4549666   0.0840542), wk =   0.0370370
        k(   44) = (  -0.0875584   0.4549666   0.2521626), wk =   0.0370370
        k(   45) = (  -0.0875584   0.4549666   0.4202710), wk =   0.0370370
        k(   46) = (  -0.0875584   0.2527592   0.0840542), wk =   0.0370370
        k(   47) = (  -0.0875584   0.2527592   0.2521626), wk =   0.0370370
        k(   48) = (  -0.0875584   0.2527592   0.4202710), wk =   0.0370370
        k(   49) = (  -0.0875584   0.0505518   0.0840542), wk =   0.0185185
        k(   50) = (  -0.0875584   0.0505518   0.2521626), wk =   0.0185185
        k(   51) = (  -0.0875584   0.0505518   0.4202710), wk =   0.0185185
        k(   52) = (  -0.2626751  -0.6571740   0.0840542), wk =   0.0370370
        k(   53) = (  -0.2626751  -0.6571740   0.2521626), wk =   0.0370370
        k(   54) = (  -0.2626751  -0.6571740   0.4202710), wk =   0.0370370
        k(   55) = (  -0.2626751   0.3538629   0.0840542), wk =   0.0370370
        k(   56) = (  -0.2626751   0.3538629   0.2521626), wk =   0.0370370
        k(   57) = (  -0.2626751   0.3538629   0.4202710), wk =   0.0370370
        k(   58) = (  -0.2626751   0.1516555   0.0840542), wk =   0.0185185
        k(   59) = (  -0.2626751   0.1516555   0.2521626), wk =   0.0185185
        k(   60) = (  -0.2626751   0.1516555   0.4202710), wk =   0.0185185
        k(   61) = (  -0.4377918   0.2527592   0.0840542), wk =   0.0185185
        k(   62) = (  -0.4377918   0.2527592   0.2521626), wk =   0.0185185
        k(   63) = (  -0.4377918   0.2527592   0.4202710), wk =   0.0185185
     extrapolated charge   24.15999, renormalised to   24.00000

     total cpu time spent up to now is      620.2 secs

     per-process dynamical memory:    21.2 Mb

     Self-consistent Calculation

     iteration #  1     ecut=   100.00 Ry     beta=0.30
     Davidson diagonalization with overlap
     ethr =  1.00E-06,  avg # of iterations =  7.2

     total cpu time spent up to now is      662.2 secs

     total energy              =    -139.65373901 Ry
     Harris-Foulkes estimate   =    -139.56952862 Ry
     estimated scf accuracy    <       0.02436092 Ry

     iteration #  2     ecut=   100.00 Ry     beta=0.30
     Davidson diagonalization with overlap
     ethr =  1.02E-04,  avg # of iterations =  1.0

     total cpu time spent up to now is      676.1 secs

     total energy              =    -139.64867955 Ry
     Harris-Foulkes estimate   =    -139.65466056 Ry
     estimated scf accuracy    <       0.01736990 Ry

     iteration #  3     ecut=   100.00 Ry     beta=0.30
     Davidson diagonalization with overlap
     ethr =  7.24E-05,  avg # of iterations =  2.0

     total cpu time spent up to now is      692.2 secs

     total energy              =    -139.64825497 Ry
     Harris-Foulkes estimate   =    -139.64981390 Ry
     estimated scf accuracy    <       0.00300559 Ry

     iteration #  4     ecut=   100.00 Ry     beta=0.30
     Davidson diagonalization with overlap
     ethr =  1.25E-05,  avg # of iterations =  2.1

     total cpu time spent up to now is      710.3 secs

     total energy              =    -139.64862312 Ry
     Harris-Foulkes estimate   =    -139.64898773 Ry
     estimated scf accuracy    <       0.00087990 Ry

     iteration #  5     ecut=   100.00 Ry     beta=0.30
     Davidson diagonalization with overlap
     ethr =  3.67E-06,  avg # of iterations =  2.0

     total cpu time spent up to now is      728.1 secs

     total energy              =    -139.64875232 Ry
     Harris-Foulkes estimate   =    -139.64875890 Ry
     estimated scf accuracy    <       0.00007941 Ry

     iteration #  6     ecut=   100.00 Ry     beta=0.30
     Davidson diagonalization with overlap
     ethr =  3.31E-07,  avg # of iterations =  3.0

     total cpu time spent up to now is      748.3 secs

     total energy              =    -139.64872179 Ry
     Harris-Foulkes estimate   =    -139.64877830 Ry
     estimated scf accuracy    <       0.00015115 Ry

     iteration #  7     ecut=   100.00 Ry     beta=0.30
     Davidson diagonalization with overlap
     ethr =  3.31E-07,  avg # of iterations =  2.0

     total cpu time spent up to now is      766.5 secs

     total energy              =    -139.64873137 Ry
     Harris-Foulkes estimate   =    -139.64873668 Ry
     estimated scf accuracy    <       0.00001306 Ry

     iteration #  8     ecut=   100.00 Ry     beta=0.30
     Davidson diagonalization with overlap
     ethr =  5.44E-08,  avg # of iterations =  2.0

     total cpu time spent up to now is      783.3 secs

     End of self-consistent calculation

          k = 0.0876 0.1517 0.0841 (  4531 PWs)   bands (ev):

   -26.0973  -9.0840  -8.0617  -7.3929  -6.6378  -3.7784   5.6833   6.8057
     8.0267   8.5840  10.7393  11.3512

          k = 0.0876 0.1517 0.2522 (  4541 PWs)   bands (ev):

   -26.0704  -9.5667  -7.9113  -7.3685  -6.1085  -3.9319   4.7262   6.5289
     8.1920   9.0240  10.3703  11.2640

          k = 0.0876 0.1517 0.4203 (  4548 PWs)   bands (ev):

   -26.0432  -9.9320  -7.8023  -7.3432  -5.5307  -4.2175   4.1645   5.9559
     8.6264   9.2227  10.1785  10.8376

          k = 0.0876 0.3539 0.0841 (  4545 PWs)   bands (ev):

   -26.0006  -9.6392  -8.0165  -7.5565  -5.9160  -4.3185   5.5843   6.0549
     8.0028   9.4188  10.4920  11.4409

          k = 0.0876 0.3539 0.2522 (  4549 PWs)   bands (ev):

   -25.9780  -9.3858  -8.4659  -7.5364  -5.9460  -4.0570   4.5140   5.5637
     7.9275   9.6815  11.1263  11.4759

          k = 0.0876 0.3539 0.4203 (  4546 PWs)   bands (ev):

   -25.9552  -9.2129  -8.7093  -7.5034  -5.9714  -4.0425   4.0162   5.0958
     8.0183   9.6882  11.2156  11.4684

          k = 0.0876 0.5561 0.0841 (  4557 PWs)   bands (ev):

   -25.9281 -10.0225  -7.8768  -7.5481  -5.7783  -4.5395   5.1455   6.0489
     7.9676   9.3799  10.9194  11.4566

          k = 0.0876 0.5561 0.2522 (  4553 PWs)   bands (ev):

   -25.9088  -9.6932  -8.0114  -7.6669  -6.1599  -4.3875   4.8041   5.1437
     7.9151   9.6893  11.2471  11.5614

          k = 0.0876 0.5561 0.4203 (  4556 PWs)   bands (ev):

   -25.8893  -9.2874  -8.1833  -7.6792  -6.6450  -4.3011   4.1544   4.9542
     7.7784  10.1498  11.3089  11.4547

          k = 0.0876-0.4550 0.0841 (  4549 PWs)   bands (ev):

   -25.9548  -9.9346  -7.8078  -7.5927  -5.4554  -4.9564   5.5161   6.3286
     7.9861   9.3394  10.5856  11.1274

          k = 0.0876-0.4550 0.2522 (  4548 PWs)   bands (ev):

   -25.9342  -9.7109  -7.9336  -7.6709  -5.6794  -4.9056   5.1037   5.4884
     8.2064   9.5827  10.7877  11.0400

          k = 0.0876-0.4550 0.4203 (  4557 PWs)   bands (ev):

   -25.9136  -9.3264  -8.3381  -7.6085  -6.2442  -4.4177   4.3264   4.9871
     8.0179   9.9147  11.1121  11.2753

          k = 0.0876-0.2528 0.0841 (  4535 PWs)   bands (ev):

   -26.0527  -9.3980  -8.0006  -7.4800  -6.1742  -4.2000   5.7864   6.5854
     8.1293   8.9855  10.3855  11.1423

          k = 0.0876-0.2528 0.2522 (  4532 PWs)   bands (ev):

   -26.0277  -9.5280  -8.1365  -7.4542  -5.8036  -4.2967   4.8102   6.1856
     8.3722   9.2139  10.3896  11.1406

          k = 0.0876-0.2528 0.4203 (  4555 PWs)   bands (ev):

   -26.0026  -9.6735  -8.1967  -7.4193  -5.6075  -4.2370   4.1508   5.5191
     8.6010   9.1403  10.5497  11.2456

          k = 0.0876-0.0506 0.0841 (  4547 PWs)   bands (ev):

   -26.1228  -8.9091  -7.9763  -7.3465  -6.9969  -3.5448   5.6161   7.0035
     7.9349   8.2748  11.0251  11.4751

          k = 0.0876-0.0506 0.2522 (  4538 PWs)   bands (ev):

   -26.0947  -9.6319  -7.6094  -7.3242  -6.3738  -3.7795   4.7565   6.7867
     8.1393   8.7563  10.4973  11.1437

          k = 0.0876-0.0506 0.4203 (  4540 PWs)   bands (ev):

   -26.0664 -10.0776  -7.4937  -7.3030  -5.5308  -4.2790   4.2498   6.2987
     8.6558   9.3537   9.9118  10.3784

          k = 0.2627 0.4550 0.0841 (  4559 PWs)   bands (ev):

   -25.9284  -9.7386  -8.5130  -7.5453  -5.1490  -4.7709   5.4547   5.8290
     7.2221  10.1782  10.4614  11.7564

          k = 0.2627 0.4550 0.2522 (  4556 PWs)   bands (ev):

   -25.9090  -9.4581  -8.4348  -7.7584  -5.6009  -4.7075   4.9090   5.2690
     7.7049  10.1055  10.8034  11.5145

          k = 0.2627 0.4550 0.4203 (  4549 PWs)   bands (ev):

   -25.8895  -9.0381  -8.5276  -7.8700  -6.0185  -4.7549   4.5512   4.8030
     8.1057   9.9718  10.9750  11.3417

          k = 0.2627 0.6572 0.0841 (  4559 PWs)   bands (ev):

   -25.9089  -9.6542  -8.8101  -7.5001  -4.9681  -4.8193   5.4084   5.6869
     6.9790  10.3090  10.6039  11.9071

          k = 0.2627 0.6572 0.2522 (  4568 PWs)   bands (ev):

   -25.8904  -9.3883  -8.6296  -7.7050  -5.4574  -4.9156   5.0410   5.1653
     7.5100  10.3053  10.7830  11.5328

          k = 0.2627 0.6572 0.4203 (  4556 PWs)   bands (ev):

   -25.8717  -9.0318  -8.4582  -7.8995  -5.9704  -5.0737   4.6550   4.8485
     8.0675  10.2813  10.8624  11.0911

          k = 0.2627-0.3539 0.0841 (  4544 PWs)   bands (ev):

   -25.9620  -9.7443  -8.1704  -7.6002  -5.5431  -4.5535   5.5071   5.9648
     7.6555   9.7812  10.4520  11.5744

          k = 0.2627-0.3539 0.2522 (  4551 PWs)   bands (ev):

   -25.9411  -9.4525  -8.3745  -7.7048  -5.8025  -4.3607   4.7004   5.3892
     7.8930   9.8254  11.0352  11.4446

          k = 0.2627-0.3539 0.4203 (  4549 PWs)   bands (ev):

   -25.9201  -9.0010  -8.7690  -7.6903  -6.0288  -4.3410   4.2487   4.9165
     8.0850   9.7399  11.1573  11.4987

          k = 0.2627-0.1517 0.0841 (  4543 PWs)   bands (ev):

   -26.0337  -9.4681  -8.0639  -7.4698  -6.1498  -4.1322   5.6372   6.2045
     8.0556   9.2471  10.4685  11.4457

          k = 0.2627-0.1517 0.2522 (  4539 PWs)   bands (ev):

   -26.0096  -9.3636  -8.4573  -7.4401  -5.9897  -3.9198   4.4711   5.7888
     7.9132   9.6139  10.9239  11.5571

          k = 0.2627-0.1517 0.4203 (  4560 PWs)   bands (ev):

   -25.9853  -9.4757  -8.4751  -7.4126  -5.8462  -3.9626   3.9621   5.3033
     8.0433   9.6620  11.1473  11.2257

          k = 0.4378 0.7583 0.0841 (  4568 PWs)   bands (ev):

   -25.9159  -9.8877  -8.3547  -7.5150  -5.3471  -4.6697   5.2588   5.8927
     7.3779   9.8963  10.7595  11.7150

          k = 0.4378 0.7583 0.2522 (  4565 PWs)   bands (ev):

   -25.8971  -9.5926  -8.2520  -7.7235  -5.8058  -4.6690   5.0280   5.0965
     7.7356   9.9316  11.0001  11.5486

          k = 0.4378 0.7583 0.4203 (  4544 PWs)   bands (ev):

   -25.8781  -9.2120  -8.1386  -7.9259  -6.3528  -4.6744   4.4101   4.9298
     7.9475  10.1982  11.0857  11.2324

          k = 0.4378-0.2528 0.0841 (  4549 PWs)   bands (ev):

   -25.9423 -10.0094  -7.6809  -7.5904  -5.9777  -4.4500   5.1547   6.0592
     8.2933   9.1076  11.1550  11.1650

          k = 0.4378-0.2528 0.2522 (  4544 PWs)   bands (ev):

   -25.9224  -9.6572  -8.1084  -7.5550  -6.2611  -4.1905   4.6140   5.1922
     7.9272   9.6524  11.4897  11.5029

          k = 0.4378-0.2528 0.4203 (  4565 PWs)   bands (ev):

   -25.9023  -9.2324  -8.4263  -7.5204  -6.6230  -4.1097   4.0260   4.9445
     7.7209  10.0823  11.4569  11.5427

          k =-0.0876-0.3539 0.0841 (  4545 PWs)   bands (ev):

   -26.0005  -9.7080  -7.8740  -7.5726  -5.7140  -4.6798   5.7482   6.4430
     8.0906   9.2670  10.3094  11.0522

          k =-0.0876-0.3539 0.2522 (  4549 PWs)   bands (ev):

   -25.9779  -9.5970  -8.1197  -7.5602  -5.5701  -4.7568   4.9799   5.8302
     8.3821   9.4125  10.6193  10.9137

          k =-0.0876-0.3539 0.4203 (  4546 PWs)   bands (ev):

   -25.9552  -9.4015  -8.4555  -7.5118  -5.8443  -4.3376   4.2620   5.1486
     8.2968   9.4921  10.9027  11.3359

          k =-0.0876-0.5561 0.0841 (  4557 PWs)   bands (ev):

   -25.9281 -10.0433  -7.8413  -7.5406  -5.6416  -4.7464   5.2518   6.1805
     7.9520   9.3604  10.8183  11.3330

          k =-0.0876-0.5561 0.2522 (  4553 PWs)   bands (ev):

   -25.9087  -9.7590  -7.8013  -7.7502  -6.0277  -4.6734   5.1149   5.1550
     8.0243   9.6374  11.0292  11.3388

          k =-0.0876-0.5561 0.4203 (  4556 PWs)   bands (ev):

   -25.8893  -9.3566  -8.0231  -7.7231  -6.6323  -4.4063   4.2386   5.0004
     7.8393  10.1781  11.1139  11.3946

          k =-0.0876 0.4550 0.0841 (  4549 PWs)   bands (ev):

   -25.9548  -9.8794  -7.9241  -7.5859  -5.8124  -4.4356   5.2963   5.9774
     7.9902   9.4120  10.8204  11.4490

          k =-0.0876 0.4550 0.2522 (  4548 PWs)   bands (ev):

   -25.9343  -9.5293  -8.3016  -7.6122  -6.0734  -4.1645   4.5690   5.2679
     7.8859   9.7264  11.3217  11.5852

          k =-0.0876 0.4550 0.4203 (  4557 PWs)   bands (ev):

   -25.9136  -9.0686  -8.6954  -7.5874  -6.3249  -4.1482   4.0864   4.9213
     7.8405   9.9596  11.3711  11.5331

          k =-0.0876 0.2528 0.0841 (  4535 PWs)   bands (ev):

   -26.0527  -9.3488  -8.0893  -7.4747  -6.2132  -4.0787   5.6926   6.4233
     8.0077   9.1480  10.3818  11.4206

          k =-0.0876 0.2528 0.2522 (  4532 PWs)   bands (ev):

   -26.0278  -9.4368  -8.2881  -7.4470  -5.9304  -4.0142   4.6024   6.0283
     8.0319   9.4781  10.6623  11.3892

          k =-0.0876 0.2528 0.4203 (  4555 PWs)   bands (ev):

   -26.0026  -9.6371  -8.2589  -7.4165  -5.6919  -4.0747   4.0412   5.4786
     8.2925   9.4074  10.8411  11.1685

          k =-0.0876 0.0506 0.0841 (  4547 PWs)   bands (ev):

   -26.1228  -8.9256  -7.9447  -7.3478  -7.0041  -3.5594   5.6372   7.0170
     8.0866   8.1204  11.1875  11.2624

          k =-0.0876 0.0506 0.2522 (  4538 PWs)   bands (ev):

   -26.0947  -9.6409  -7.5854  -7.3268  -6.3664  -3.8158   4.7877   6.8217
     8.3198   8.5819  10.4362  11.1179

          k =-0.0876 0.0506 0.4203 (  4540 PWs)   bands (ev):

   -26.0664 -10.0803  -7.4865  -7.3043  -5.5101  -4.3115   4.2644   6.3114
     8.8645   9.1859   9.7188  10.5017

          k =-0.2627-0.6572 0.0841 (  4559 PWs)   bands (ev):

   -25.9089  -9.6460  -8.8204  -7.5005  -5.0700  -4.7069   5.3668   5.6878
     6.9945  10.2793  10.6369  11.9339

          k =-0.2627-0.6572 0.2522 (  4568 PWs)   bands (ev):

   -25.8904  -9.3618  -8.6656  -7.7026  -5.5243  -4.8274   5.0187   5.1335
     7.5068  10.2776  10.8474  11.5623

          k =-0.2627-0.6572 0.4203 (  4556 PWs)   bands (ev):

   -25.8717  -9.0021  -8.5033  -7.8894  -5.9870  -5.0456   4.6623   4.8211
     8.0492  10.2947  10.9152  11.0682

          k =-0.2627 0.3539 0.0841 (  4544 PWs)   bands (ev):

   -25.9620  -9.7751  -8.1141  -7.6038  -5.3513  -4.8151   5.6098   6.1243
     7.6097   9.8439  10.2963  11.4191

          k =-0.2627 0.3539 0.2522 (  4551 PWs)   bands (ev):

   -25.9411  -9.5540  -8.1819  -7.7459  -5.5970  -4.7119   4.9229   5.4983
     8.0204   9.7889  10.7844  11.2090

          k =-0.2627 0.3539 0.4203 (  4549 PWs)   bands (ev):

   -25.9201  -9.1839  -8.5389  -7.7085  -5.9715  -4.4748   4.3546   4.9429
     8.2084   9.6403  11.0744  11.3933

          k =-0.2627 0.1517 0.0841 (  4543 PWs)   bands (ev):

   -26.0337  -9.5584  -7.8975  -7.4722  -6.0252  -4.4399   5.8243   6.6042
     8.3946   8.8238  10.4376  10.8590

          k =-0.2627 0.1517 0.2522 (  4539 PWs)   bands (ev):

   -26.0096  -9.5861  -8.1084  -7.4450  -5.6508  -4.6136   4.9559   6.1239
     8.6784   9.0471  10.3052  10.9804

          k =-0.2627 0.1517 0.4203 (  4560 PWs)   bands (ev):

   -25.9853  -9.5864  -8.3060  -7.4151  -5.6816  -4.3079   4.2233   5.3789
     8.4242   9.4124  10.5275  11.3176

          k =-0.4378 0.2528 0.0841 (  4549 PWs)   bands (ev):

   -25.9423 -10.0526  -7.5915  -7.5834  -5.7205  -4.8620   5.3548   6.3710
     8.4763   8.8396  10.8696  10.9760

          k =-0.4378 0.2528 0.2522 (  4544 PWs)   bands (ev):

   -25.9223  -9.7962  -7.8311  -7.5574  -5.9900  -4.7996   5.1639   5.3367
     8.2164   9.5132  10.9764  11.0363

          k =-0.4378 0.2528 0.4203 (  4565 PWs)   bands (ev):

   -25.9023  -9.3919  -8.1687  -7.5216  -6.5936  -4.3379   4.2358   5.0186
     7.8402  10.1480  11.1416  11.3117

!    total energy              =    -139.64873257 Ry
     Harris-Foulkes estimate   =    -139.64873308 Ry
     estimated scf accuracy    <       0.00000093 Ry

     The total energy is the sum of the following terms:

     one-electron contribution =     -14.87819562 Ry
     hartree contribution      =      23.89064643 Ry
     xc contribution           =     -26.58158629 Ry
     ewald contribution        =    -122.07959709 Ry

     convergence has been achieved in   8 iterations

     Forces acting on atoms (Ry/au):

     atom    1 type  3   force =     0.00000000   -0.00000000   -0.00036821
     atom    2 type  2   force =     0.00000000   -0.00000000    0.04281039
     atom    3 type  2   force =     0.00000000   -0.00000000   -0.04255209
     atom    4 type  1   force =    -0.00000000   -0.00000000   -0.16166697
     atom    5 type  1   force =     0.00000000    0.00000000    0.16177688

     Total force =     0.236541     Total SCF correction =     0.000145


     entering subroutine stress ...

          total   stress  (Ry/bohr**3)                   (kbar)     P= 1014.42
   0.00824897  -0.00000000   0.00000000       1213.47     -0.00      0.00
  -0.00000000   0.00824897  -0.00000000         -0.00   1213.47     -0.00
  -0.00000000   0.00000000   0.00418981         -0.00      0.00    616.34


     number of scf cycles    =   3
     number of bfgs steps    =   2

     enthalpy old            =    -138.5511375615 Ry
     enthalpy new            =    -138.6892670179 Ry

     CASE: enthalpy_new < enthalpy_old


     WARNING: bfgs curvature condition failed, Theta= 0.978
     new trust radius        =       0.1970518200 bohr
     new conv_thr            =       0.0000010000 Ry

     new unit-cell volume =    202.83843 a.u.^3 (    30.05755 Ang^3 )

CELL_PARAMETERS (alat=  6.37640000)
   0.989536829   0.000000000  -0.000000000
  -0.494768415   0.856964032  -0.000000000
   0.000000000  -0.000000000   0.922633091

ATOMIC_POSITIONS (crystal)
Ca      -0.000000000  -0.000000000  -0.000275760
O        0.333333333   0.666666667   0.312569636
O        0.666666667   0.333333333   0.686572423
H        0.333333333   0.666666667   0.604405717
H        0.666666667   0.333333333   0.394727985



     Writing output data file CaOH2_ambient.save
     NEW-OLD atomic charge density approx. for the potential
     NEW k-points:
        k(    1) = (   0.0842145   0.1458638   0.0903212), wk =   0.0370370
        k(    2) = (   0.0842145   0.1458638   0.2709636), wk =   0.0370370
        k(    3) = (   0.0842145   0.1458638   0.4516060), wk =   0.0370370
        k(    4) = (   0.0842145   0.3403488   0.0903212), wk =   0.0370370
        k(    5) = (   0.0842145   0.3403488   0.2709636), wk =   0.0370370
        k(    6) = (   0.0842145   0.3403488   0.4516060), wk =   0.0370370
        k(    7) = (   0.0842145   0.5348338   0.0903212), wk =   0.0370370
        k(    8) = (   0.0842145   0.5348338   0.2709636), wk =   0.0370370
        k(    9) = (   0.0842145   0.5348338   0.4516060), wk =   0.0370370
        k(   10) = (   0.0842145  -0.4375913   0.0903212), wk =   0.0370370
        k(   11) = (   0.0842145  -0.4375913   0.2709636), wk =   0.0370370
        k(   12) = (   0.0842145  -0.4375913   0.4516060), wk =   0.0370370
        k(   13) = (   0.0842145  -0.2431063   0.0903212), wk =   0.0370370
        k(   14) = (   0.0842145  -0.2431063   0.2709636), wk =   0.0370370
        k(   15) = (   0.0842145  -0.2431063   0.4516060), wk =   0.0370370
        k(   16) = (   0.0842145  -0.0486213   0.0903212), wk =   0.0185185
        k(   17) = (   0.0842145  -0.0486213   0.2709636), wk =   0.0185185
        k(   18) = (   0.0842145  -0.0486213   0.4516060), wk =   0.0185185
        k(   19) = (   0.2526435   0.4375913   0.0903212), wk =   0.0370370
        k(   20) = (   0.2526435   0.4375913   0.2709636), wk =   0.0370370
        k(   21) = (   0.2526435   0.4375913   0.4516060), wk =   0.0370370
        k(   22) = (   0.2526435   0.6320763   0.0903212), wk =   0.0370370
        k(   23) = (   0.2526435   0.6320763   0.2709636), wk =   0.0370370
        k(   24) = (   0.2526435   0.6320763   0.4516060), wk =   0.0370370
        k(   25) = (   0.2526435  -0.3403488   0.0903212), wk =   0.0370370
        k(   26) = (   0.2526435  -0.3403488   0.2709636), wk =   0.0370370
        k(   27) = (   0.2526435  -0.3403488   0.4516060), wk =   0.0370370
        k(   28) = (   0.2526435  -0.1458638   0.0903212), wk =   0.0185185
        k(   29) = (   0.2526435  -0.1458638   0.2709636), wk =   0.0185185
        k(   30) = (   0.2526435  -0.1458638   0.4516060), wk =   0.0185185
        k(   31) = (   0.4210724   0.7293188   0.0903212), wk =   0.0370370
        k(   32) = (   0.4210724   0.7293188   0.2709636), wk =   0.0370370
        k(   33) = (   0.4210724   0.7293188   0.4516060), wk =   0.0370370
        k(   34) = (   0.4210724  -0.2431063   0.0903212), wk =   0.0185185
        k(   35) = (   0.4210724  -0.2431063   0.2709636), wk =   0.0185185
        k(   36) = (   0.4210724  -0.2431063   0.4516060), wk =   0.0185185
        k(   37) = (  -0.0842145  -0.3403488   0.0903212), wk =   0.0370370
        k(   38) = (  -0.0842145  -0.3403488   0.2709636), wk =   0.0370370
        k(   39) = (  -0.0842145  -0.3403488   0.4516060), wk =   0.0370370
        k(   40) = (  -0.0842145  -0.5348338   0.0903212), wk =   0.0370370
        k(   41) = (  -0.0842145  -0.5348338   0.2709636), wk =   0.0370370
        k(   42) = (  -0.0842145  -0.5348338   0.4516060), wk =   0.0370370
        k(   43) = (  -0.0842145   0.4375913   0.0903212), wk =   0.0370370
        k(   44) = (  -0.0842145   0.4375913   0.2709636), wk =   0.0370370
        k(   45) = (  -0.0842145   0.4375913   0.4516060), wk =   0.0370370
        k(   46) = (  -0.0842145   0.2431063   0.0903212), wk =   0.0370370
        k(   47) = (  -0.0842145   0.2431063   0.2709636), wk =   0.0370370
        k(   48) = (  -0.0842145   0.2431063   0.4516060), wk =   0.0370370
        k(   49) = (  -0.0842145   0.0486213   0.0903212), wk =   0.0185185
        k(   50) = (  -0.0842145   0.0486213   0.2709636), wk =   0.0185185
        k(   51) = (  -0.0842145   0.0486213   0.4516060), wk =   0.0185185
        k(   52) = (  -0.2526435  -0.6320763   0.0903212), wk =   0.0370370
        k(   53) = (  -0.2526435  -0.6320763   0.2709636), wk =   0.0370370
        k(   54) = (  -0.2526435  -0.6320763   0.4516060), wk =   0.0370370
        k(   55) = (  -0.2526435   0.3403488   0.0903212), wk =   0.0370370
        k(   56) = (  -0.2526435   0.3403488   0.2709636), wk =   0.0370370
        k(   57) = (  -0.2526435   0.3403488   0.4516060), wk =   0.0370370
        k(   58) = (  -0.2526435   0.1458638   0.0903212), wk =   0.0185185
        k(   59) = (  -0.2526435   0.1458638   0.2709636), wk =   0.0185185
        k(   60) = (  -0.2526435   0.1458638   0.4516060), wk =   0.0185185
        k(   61) = (  -0.4210724   0.2431063   0.0903212), wk =   0.0185185
        k(   62) = (  -0.4210724   0.2431063   0.2709636), wk =   0.0185185
        k(   63) = (  -0.4210724   0.2431063   0.4516060), wk =   0.0185185
     extrapolated charge   24.13088, renormalised to   24.00000

     total cpu time spent up to now is      879.9 secs

     per-process dynamical memory:    21.2 Mb

     Self-consistent Calculation

     iteration #  1     ecut=   100.00 Ry     beta=0.30
     Davidson diagonalization with overlap
     ethr =  1.00E-06,  avg # of iterations =  6.1

     total cpu time spent up to now is      920.0 secs

     total energy              =    -139.71550456 Ry
     Harris-Foulkes estimate   =    -139.64474728 Ry
     estimated scf accuracy    <       0.02523154 Ry

     iteration #  2     ecut=   100.00 Ry     beta=0.30
     Davidson diagonalization with overlap
     ethr =  1.05E-04,  avg # of iterations =  1.0

     total cpu time spent up to now is      933.9 secs

     total energy              =    -139.70621637 Ry
     Harris-Foulkes estimate   =    -139.71596579 Ry
     estimated scf accuracy    <       0.01767690 Ry

     iteration #  3     ecut=   100.00 Ry     beta=0.30
     Davidson diagonalization with overlap
     ethr =  7.37E-05,  avg # of iterations =  2.0

     total cpu time spent up to now is      952.2 secs

     total energy              =    -139.70939778 Ry
     Harris-Foulkes estimate   =    -139.70950555 Ry
     estimated scf accuracy    <       0.00106188 Ry

     iteration #  4     ecut=   100.00 Ry     beta=0.30
     Davidson diagonalization with overlap
     ethr =  4.42E-06,  avg # of iterations =  1.0

     total cpu time spent up to now is      966.1 secs

     total energy              =    -139.70892941 Ry
     Harris-Foulkes estimate   =    -139.70942775 Ry
     estimated scf accuracy    <       0.00094195 Ry

     iteration #  5     ecut=   100.00 Ry     beta=0.30
     Davidson diagonalization with overlap
     ethr =  3.92E-06,  avg # of iterations =  2.0

     total cpu time spent up to now is      984.5 secs

     total energy              =    -139.70912350 Ry
     Harris-Foulkes estimate   =    -139.70913142 Ry
     estimated scf accuracy    <       0.00005724 Ry

     iteration #  6     ecut=   100.00 Ry     beta=0.30
     Davidson diagonalization with overlap
     ethr =  2.38E-07,  avg # of iterations =  2.0

     total cpu time spent up to now is      999.9 secs

     total energy              =    -139.70910383 Ry
     Harris-Foulkes estimate   =    -139.70912712 Ry
     estimated scf accuracy    <       0.00004360 Ry

     iteration #  7     ecut=   100.00 Ry     beta=0.30
     Davidson diagonalization with overlap
     ethr =  1.82E-07,  avg # of iterations =  2.0

     total cpu time spent up to now is     1018.2 secs

     total energy              =    -139.70911289 Ry
     Harris-Foulkes estimate   =    -139.70911301 Ry
     estimated scf accuracy    <       0.00000113 Ry

     iteration #  8     ecut=   100.00 Ry     beta=0.30
     Davidson diagonalization with overlap
     ethr =  4.71E-09,  avg # of iterations =  2.0

     total cpu time spent up to now is     1033.6 secs

     End of self-consistent calculation

          k = 0.0842 0.1459 0.0903 (  4531 PWs)   bands (ev):

   -26.4706  -9.7937  -8.1854  -7.8095  -7.2889  -5.2507   5.2660   6.3198
     7.5657   7.9754  10.7353  11.3482

          k = 0.0842 0.1459 0.2710 (  4541 PWs)   bands (ev):

   -26.4229 -10.1267  -8.1850  -7.7668  -6.8868  -5.2809   3.9145   6.1381
     7.7876   8.4840  10.2691  11.1795

          k = 0.0842 0.1459 0.4516 (  4548 PWs)   bands (ev):

   -26.3744 -10.4558  -8.0673  -7.7205  -6.5445  -5.3640   3.0332   5.6509
     8.2512   8.7656  10.0118  10.6438

          k = 0.0842 0.3403 0.0903 (  4545 PWs)   bands (ev):

   -26.4049 -10.1546  -8.2742  -7.9050  -6.7661  -5.6445   5.4033   5.9288
     7.5551   8.6401  10.3907  11.5278

          k = 0.0842 0.3403 0.2710 (  4549 PWs)   bands (ev):

   -26.3621  -9.9005  -8.7034  -7.9001  -6.7961  -5.4449   4.1464   5.4242
     7.5495   8.8921  10.8318  11.5165

          k = 0.0842 0.3403 0.4516 (  4546 PWs)   bands (ev):

   -26.3187  -9.7977  -8.8017  -7.8412  -6.9416  -5.4170   3.4371   4.8643
     7.6894   8.9822  11.0377  11.2066

          k = 0.0842 0.5348 0.0903 (  4557 PWs)   bands (ev):

   -26.3561 -10.3896  -8.3038  -7.8455  -6.8023  -5.6740   5.3463   5.9252
     7.4474   8.6518  10.7946  11.5316

          k = 0.0842 0.5348 0.2710 (  4553 PWs)   bands (ev):

   -26.3169  -9.9627  -8.4944  -8.0183  -7.0101  -5.7073   4.7207   4.9357
     7.5390   8.9478  10.9983  11.5223

          k = 0.0842 0.5348 0.4516 (  4556 PWs)   bands (ev):

   -26.2774  -9.3417  -8.7821  -8.0304  -7.5221  -5.7013   3.9648   4.4944
     7.4706   9.4312  10.9439  11.3988

          k = 0.0842-0.4376 0.0903 (  4549 PWs)   bands (ev):

   -26.3740 -10.3505  -8.1869  -7.8651  -6.5881  -5.9820   5.4210   6.1820
     7.5151   8.7097  10.4284  11.2605

[...]
        k(   60) = (  -0.2343269   0.1352887   0.5012214), wk =   0.0185185
        k(   61) = (  -0.3905449   0.2254812   0.1002443), wk =   0.0185185
        k(   62) = (  -0.3905449   0.2254812   0.3007329), wk =   0.0185185
        k(   63) = (  -0.3905449   0.2254812   0.5012214), wk =   0.0185185

     Dense  grid:    20581 G-vectors     FFT dimensions: (  40,  40,  32)

     Largest allocated arrays     est. size (Mb)     dimensions
        Kohn-Sham Wavefunctions         0.66 Mb     (   3605,   12)
        NL pseudopotentials             0.50 Mb     (   3605,    9)
        Each V/rho on FFT grid          0.78 Mb     (  51200)
        Each G-vector array             0.16 Mb     (  20581)
        G-vector shells                 0.01 Mb     (    980)
     Largest temporary arrays     est. size (Mb)     dimensions
        Auxiliary wavefunctions         2.64 Mb     (   3605,   48)
        Each subspace H/S matrix        0.04 Mb     (  48,  48)
        Each <psi_i|beta_j> matrix      0.00 Mb     (      9,   12)
        Arrays for rho mixing          12.50 Mb     (  51200,  16)

     Initial potential from superposition of free atoms

     starting charge   21.99998, renormalised to   24.00000
     Starting wfc are   14 randomized atomic wfcs

     Writing output data file CaOH2_ambient.save

     total cpu time spent up to now is     4461.8 secs

     per-process dynamical memory:    16.6 Mb

     Self-consistent Calculation

     iteration #  1     ecut=   100.00 Ry     beta=0.30
     Davidson diagonalization with overlap
     ethr =  1.00E-06,  avg # of iterations =  5.9

     total cpu time spent up to now is     4484.2 secs

     total energy              =    -139.94849904 Ry
     Harris-Foulkes estimate   =    -140.02664144 Ry
     estimated scf accuracy    <       0.44951562 Ry

     iteration #  2     ecut=   100.00 Ry     beta=0.30
     Davidson diagonalization with overlap
     ethr =  1.87E-03,  avg # of iterations =  1.0

     total cpu time spent up to now is     4491.7 secs

     total energy              =    -139.76275783 Ry
     Harris-Foulkes estimate   =    -139.95180739 Ry
     estimated scf accuracy    <       0.29144575 Ry

     iteration #  3     ecut=   100.00 Ry     beta=0.30
     Davidson diagonalization with overlap
     ethr =  1.21E-03,  avg # of iterations =  2.0

     total cpu time spent up to now is     4501.8 secs

     total energy              =    -139.81000819 Ry
     Harris-Foulkes estimate   =    -139.81348716 Ry
     estimated scf accuracy    <       0.01522471 Ry

     iteration #  4     ecut=   100.00 Ry     beta=0.30
     Davidson diagonalization with overlap
     ethr =  6.34E-05,  avg # of iterations =  1.6

     total cpu time spent up to now is     4508.7 secs

     total energy              =    -139.80920162 Ry
     Harris-Foulkes estimate   =    -139.81072682 Ry
     estimated scf accuracy    <       0.00323295 Ry

     iteration #  5     ecut=   100.00 Ry     beta=0.30
     Davidson diagonalization with overlap
     ethr =  1.35E-05,  avg # of iterations =  2.0

     total cpu time spent up to now is     4516.9 secs

     total energy              =    -139.80964975 Ry
     Harris-Foulkes estimate   =    -139.80963853 Ry
     estimated scf accuracy    <       0.00014541 Ry

     iteration #  6     ecut=   100.00 Ry     beta=0.30
     Davidson diagonalization with overlap
     ethr =  6.06E-07,  avg # of iterations =  2.0

     total cpu time spent up to now is     4524.5 secs

     total energy              =    -139.80967904 Ry
     Harris-Foulkes estimate   =    -139.80966486 Ry
     estimated scf accuracy    <       0.00003561 Ry

     iteration #  7     ecut=   100.00 Ry     beta=0.30
     Davidson diagonalization with overlap
     ethr =  1.48E-07,  avg # of iterations =  2.0

     total cpu time spent up to now is     4533.7 secs

     total energy              =    -139.80968361 Ry
     Harris-Foulkes estimate   =    -139.80968626 Ry
     estimated scf accuracy    <       0.00001295 Ry

     iteration #  8     ecut=   100.00 Ry     beta=0.30
     Davidson diagonalization with overlap
     ethr =  5.39E-08,  avg # of iterations =  1.0

     total cpu time spent up to now is     4540.2 secs

     total energy              =    -139.80968143 Ry
     Harris-Foulkes estimate   =    -139.80968401 Ry
     estimated scf accuracy    <       0.00000585 Ry

     iteration #  9     ecut=   100.00 Ry     beta=0.30
     Davidson diagonalization with overlap
     ethr =  2.44E-08,  avg # of iterations =  2.0

     total cpu time spent up to now is     4548.7 secs

     total energy              =    -139.80968271 Ry
     Harris-Foulkes estimate   =    -139.80968272 Ry
     estimated scf accuracy    <       0.00000008 Ry

     iteration # 10     ecut=   100.00 Ry     beta=0.30
     Davidson diagonalization with overlap
     ethr =  3.52E-10,  avg # of iterations =  2.0

     total cpu time spent up to now is     4557.2 secs

     total energy              =    -139.80968274 Ry
     Harris-Foulkes estimate   =    -139.80968272 Ry
     estimated scf accuracy    <       0.00000002 Ry

     iteration # 11     ecut=   100.00 Ry     beta=0.30
     Davidson diagonalization with overlap
     ethr =  8.67E-11,  avg # of iterations =  2.0

     total cpu time spent up to now is     4565.8 secs

     End of self-consistent calculation

          k = 0.0781 0.1353 0.1002 (  3582 PWs)   bands (ev):

   -27.7395 -10.0339  -9.0936  -9.0163  -8.1180  -6.2377   5.6922   6.7932
     7.1133   7.2219  10.0987  10.6098

          k = 0.0781 0.1353 0.3007 (  3593 PWs)   bands (ev):

   -27.6322 -10.2589  -9.2892  -8.9841  -7.6900  -6.1064   3.7750   5.7883
     7.2141   7.8163   9.6626  10.4375

          k = 0.0781 0.1353 0.5012 (  3557 PWs)   bands (ev):

   -27.5212 -10.7713  -9.1062  -8.8881  -7.2439  -6.0611   2.4361   4.4647
     7.9280   8.6616   8.9612   9.8331

          k = 0.0781 0.3157 0.1002 (  3585 PWs)   bands (ev):

   -27.7083 -10.5880  -9.2372  -8.9560  -7.4063  -6.4848   5.8522   6.7992
     6.9586   7.9343   9.6036  10.7336

          k = 0.0781 0.3157 0.3007 (  3593 PWs)   bands (ev):

   -27.6042 -10.2571  -9.6490  -9.0785  -7.3728  -6.1737   3.8786   5.2568
     7.1643   8.4134   9.9327  10.6132

          k = 0.0781 0.3157 0.5012 (  3580 PWs)   bands (ev):

   -27.4969 -10.4587  -9.5751  -8.9653  -7.3744  -5.9568   2.6150   3.8582
     7.6241   8.7236   9.9055  10.1844

          k = 0.0781 0.4961 0.1002 (  3598 PWs)   bands (ev):

   -27.6853 -10.8630  -9.3323  -8.8877  -7.3506  -6.3302   6.1014   6.5383
     6.9843   7.9896   9.9101  10.7063

          k = 0.0781 0.4961 0.3007 (  3581 PWs)   bands (ev):

   -27.5836 -10.4291  -9.5822  -9.1662  -7.2945  -6.2419   4.2541   4.8533
     7.2756   8.4581  10.1676  10.5289

          k = 0.0781 0.4961 0.5012 (  3593 PWs)   bands (ev):

   -27.4791 -10.2043  -9.8352  -9.0329  -7.4462  -6.0695   2.9773   3.4544
     7.5603   9.0583  10.0476  10.1628

          k = 0.0781-0.4059 0.1002 (  3598 PWs)   bands (ev):

   -27.6937 -10.7911  -9.2836  -8.8910  -7.1954  -6.5982   6.1700   6.7237
     7.0011   7.9853   9.6298  10.5050

          k = 0.0781-0.4059 0.3007 (  3587 PWs)   bands (ev):

   -27.5912 -10.4496  -9.5026  -9.1447  -6.9597  -6.6490   4.3762   4.9216
     7.4999   8.5160   9.7915  10.1328

          k = 0.0781-0.4059 0.5012 (  3587 PWs)   bands (ev):

   -27.4856 -10.3549  -9.6885  -9.0082  -7.2982  -6.1769   3.0027   3.5056
     7.8052   8.8877   9.8026  10.0244

          k = 0.0781-0.2255 0.1002 (  3582 PWs)   bands (ev):

   -27.7250 -10.3550  -9.1516  -8.9687  -7.6620  -6.4657   5.8288   6.9280
     7.0743   7.5218   9.7689  10.4928

          k = 0.0781-0.2255 0.3007 (  3592 PWs)   bands (ev):

   -27.6192 -10.2940  -9.4444  -9.0301  -7.3675  -6.3205   3.9075   5.5301
     7.4193   8.0706   9.5890  10.3341

          k = 0.0781-0.2255 0.5012 (  3572 PWs)   bands (ev):

   -27.5100 -10.6475  -9.3248  -8.9235  -7.2214  -6.0864   2.5555   4.1462
     8.0818   8.4203   9.2543  10.0665

          k = 0.0781-0.0451 0.1002 (  3595 PWs)   bands (ev):

   -27.7479  -9.7538  -9.0558  -9.0519  -8.4681  -6.1041   5.6352   6.6992
     6.8984   7.2640  10.3316  10.6750

          k = 0.0781-0.0451 0.3007 (  3597 PWs)   bands (ev):

   -27.6396 -10.2624  -9.1097  -8.9616  -7.9186  -6.0071   3.7360   5.9622
     7.1328   7.5730   9.8112  10.3642

          k = 0.0781-0.0451 0.5012 (  3567 PWs)   bands (ev):

   -27.5277 -10.8414  -8.9560  -8.8702  -7.2603  -6.0770   2.3965   4.6744
     7.9361   8.5792   8.9732   9.5759

          k = 0.2343 0.4059 0.1002 (  3586 PWs)   bands (ev):

   -27.6853 -10.6587  -9.7673  -8.8796  -6.7863  -6.6448   6.0937   6.4486
     6.6471   8.7136   9.3483  11.0076

          k = 0.2343 0.4059 0.3007 (  3587 PWs)   bands (ev):

   -27.5837 -10.2807  -9.6118  -9.4314  -6.9310  -6.4624   4.3318   4.8702
     7.0409   8.8955   9.7824  10.5408

          k = 0.2343 0.4059 0.5012 (  3583 PWs)   bands (ev):

   -27.4790 -10.2120  -9.7059  -9.2541  -7.1481  -6.3020   3.0586   3.4696
     7.8720   8.8952   9.7653  10.0845

          k = 0.2343 0.5863 0.1002 (  3605 PWs)   bands (ev):

   -27.6792 -10.5939  -9.9894  -8.8680  -6.7521  -6.5339   6.1437   6.3201
     6.5268   8.8943   9.3648  11.1470

          k = 0.2343 0.5863 0.3007 (  3589 PWs)   bands (ev):

   -27.5782 -10.2182  -9.7035  -9.4988  -6.8037  -6.5332   4.5402   4.7003
     6.9002   9.1291   9.6446  10.6218

          k = 0.2343 0.5863 0.5012 (  3580 PWs)   bands (ev):

   -27.4742 -10.1307  -9.7003  -9.3879  -7.0104  -6.4761   3.2586   3.3215
     7.8679   9.1761   9.6940   9.8732

          k = 0.2343-0.3157 0.1002 (  3594 PWs)   bands (ev):

   -27.6960 -10.6664  -9.4832  -8.9064  -7.0858  -6.5752   5.9682   6.6531
     6.8257   8.3219   9.4556  10.8379

          k = 0.2343-0.3157 0.3007 (  3588 PWs)   bands (ev):

   -27.5932 -10.2938  -9.6290  -9.2392  -7.1636  -6.3079   4.0798   5.0665
     7.1667   8.5923   9.9593  10.5039

          k = 0.2343-0.3157 0.5012 (  3585 PWs)   bands (ev):

   -27.4874 -10.3307  -9.6693  -9.0905  -7.2940  -6.0952   2.8158   3.6551
     7.7695   8.7268   9.8745  10.2153

          k = 0.2343-0.1353 0.1002 (  3591 PWs)   bands (ev):

   -27.7189 -10.4501  -9.1104  -9.0187  -7.6229  -6.4177   5.7694   6.9235
     6.9272   7.7172   9.6840  10.7295

          k = 0.2343-0.1353 0.3007 (  3582 PWs)   bands (ev):

   -27.6137 -10.2236  -9.6118  -9.0126  -7.4849  -6.1177   3.7841   5.4207
     7.1078   8.3348   9.7910  10.6770

          k = 0.2343-0.1353 0.5012 (  3572 PWs)   bands (ev):

   -27.5052 -10.5680  -9.4466  -8.9140  -7.3670  -5.9278   2.5094   4.0426
     7.5935   8.7384   9.7811  10.0631

          k = 0.3905 0.6764 0.1002 (  3585 PWs)   bands (ev):

   -27.6813 -10.7625  -9.6692  -8.8721  -7.0458  -6.4042   6.1574   6.4588
     6.6286   8.4872   9.6283  10.9628

          k = 0.3905 0.6764 0.3007 (  3593 PWs)   bands (ev):

   -27.5802 -10.3562  -9.5656  -9.3977  -7.0378  -6.3902   4.4538   4.7375
     7.0845   8.7942   9.8799  10.5761

          k = 0.3905 0.6764 0.5012 (  3583 PWs)   bands (ev):

   -27.4760 -10.1670  -9.7811  -9.2089  -7.2361  -6.2683   3.1660   3.3508
     7.7429   9.1034   9.8701   9.9883

          k = 0.3905-0.2255 0.1002 (  3600 PWs)   bands (ev):

   -27.6898 -10.8577  -9.1686  -8.9211  -7.4803  -6.3252   6.0365   6.5682
     7.2514   7.6916  10.0304  10.5769

          k = 0.3905-0.2255 0.3007 (  3588 PWs)   bands (ev):

   -27.5877 -10.4131  -9.6191  -9.0644  -7.4162  -6.1551   4.0904   4.9562
     7.3010   8.3414  10.3103  10.5388

          k = 0.3905-0.2255 0.5012 (  3591 PWs)   bands (ev):

   -27.4826 -10.2417  -9.8309  -8.9581  -7.5200  -5.9683   2.8350   3.5518
     7.4762   8.9919  10.1682  10.2258

          k =-0.0781-0.3157 0.1002 (  3585 PWs)   bands (ev):

   -27.7083 -10.6165  -9.2198  -8.9246  -7.2674  -6.6716   6.0086   6.8929
     7.0409   7.8554   9.5394  10.4530

          k =-0.0781-0.3157 0.3007 (  3593 PWs)   bands (ev):

   -27.6042 -10.3743  -9.5008  -9.0885  -7.0423  -6.5929   4.1270   5.2326
     7.5435   8.3299   9.6620  10.1376

          k =-0.0781-0.3157 0.5012 (  3580 PWs)   bands (ev):

   -27.4969 -10.4971  -9.5335  -8.9671  -7.2334  -6.1429   2.7603   3.8086
     8.0204   8.5272   9.5566  10.1169

          k =-0.0781-0.4961 0.1002 (  3598 PWs)   bands (ev):

   -27.6853 -10.8726  -9.3258  -8.8770  -7.3020  -6.3993   6.2101   6.5750
     6.9573   7.9955   9.8376  10.6169

          k =-0.0781-0.4961 0.3007 (  3581 PWs)   bands (ev):

   -27.5836 -10.4724  -9.5199  -9.1754  -7.1627  -6.4143   4.4910   4.7207
     7.3813   8.5152   9.9768  10.3466

          k =-0.0781-0.4961 0.5012 (  3593 PWs)   bands (ev):

   -27.4791 -10.2486  -9.7880  -9.0339  -7.3886  -6.1482   3.1416   3.3323
     7.6446   9.1195   9.9153  10.0470

          k =-0.0781 0.4059 0.1002 (  3598 PWs)   bands (ev):

   -27.6937 -10.7666  -9.2996  -8.9181  -7.3423  -6.4030   5.9696   6.6172
     7.0031   7.9970   9.7799  10.7382

          k =-0.0781 0.4059 0.3007 (  3587 PWs)   bands (ev):

   -27.5912 -10.3383  -9.6520  -9.1290  -7.3449  -6.1698   4.0259   5.0320
     7.2046   8.4384  10.1785  10.6023

          k =-0.0781 0.4059 0.5012 (  3587 PWs)   bands (ev):

   -27.4856 -10.2869  -9.7622  -9.0062  -7.4377  -5.9887   2.7831   3.6259
     7.5553   8.8850  10.0644  10.2507

          k =-0.0781 0.2255 0.1002 (  3582 PWs)   bands (ev):

   -27.7250 -10.3357  -9.1625  -8.9904  -7.6944  -6.4072   5.7582   6.8570
     7.0274   7.6164   9.7119  10.6918

          k =-0.0781 0.2255 0.3007 (  3592 PWs)   bands (ev):

   -27.6192 -10.2407  -9.5113  -9.0262  -7.4746  -6.1716   3.8068   5.5262
     7.1621   8.2373   9.6644  10.5584

          k =-0.0781 0.2255 0.5012 (  3572 PWs)   bands (ev):

   -27.5100 -10.6356  -9.3370  -8.9224  -7.2942  -5.9934   2.4996   4.1561
     7.7549   8.6391   9.4970  10.0298

          k =-0.0781 0.0451 0.1002 (  3595 PWs)   bands (ev):

   -27.7479  -9.7644  -9.0527  -9.0350  -8.4735  -6.1101   5.6484   6.7922
     6.7972   7.2701  10.4771  10.5088

          k =-0.0781 0.0451 0.3007 (  3597 PWs)   bands (ev):

   -27.6396 -10.2688  -9.1000  -8.9633  -7.9083  -6.0242   3.7503   5.9621
     7.2790   7.4340   9.8237  10.3142

          k =-0.0781 0.0451 0.5012 (  3567 PWs)   bands (ev):

   -27.5277 -10.8426  -8.9547  -8.8711  -7.2466  -6.0933   2.4039   4.6744
     8.0563   8.4729   8.9017   9.6192

          k =-0.2343-0.5863 0.1002 (  3605 PWs)   bands (ev):

   -27.6792 -10.5903  -9.9933  -8.8686  -6.7837  -6.4993   6.0768   6.4223
     6.4780   8.8691   9.3961  11.1605

          k =-0.2343-0.5863 0.3007 (  3589 PWs)   bands (ev):

   -27.5782 -10.2004  -9.7383  -9.4834  -6.8603  -6.4702   4.4752   4.7485
     6.8914   9.0781   9.7111  10.6483

          k =-0.2343-0.5863 0.5012 (  3580 PWs)   bands (ev):

   -27.4742 -10.1211  -9.7144  -9.3839  -7.0315  -6.4516   3.1985   3.3751
     7.8481   9.1644   9.7427   9.8712

          k =-0.2343 0.3157 0.1002 (  3594 PWs)   bands (ev):

   -27.6960 -10.6797  -9.4701  -8.8987  -6.9376  -6.7439   6.0726   6.6472
     6.8425   8.3587   9.3619  10.7391

          k =-0.2343 0.3157 0.3007 (  3588 PWs)   bands (ev):

   -27.5932 -10.3529  -9.5353  -9.2636  -6.9723  -6.5404   4.2193   5.0313
     7.2796   8.6571   9.7726  10.3034

          k =-0.2343 0.3157 0.5012 (  3585 PWs)   bands (ev):

   -27.4874 -10.3572  -9.6384  -9.0930  -7.2246  -6.1861   2.9008   3.6132
     7.9354   8.6469   9.7786  10.1244

          k =-0.2343 0.1353 0.1002 (  3591 PWs)   bands (ev):

   -27.7189 -10.4861  -9.1120  -8.9538  -7.5289  -6.5686   5.9265   7.0280
     7.1371   7.4791   9.7703  10.3048

          k =-0.2343 0.1353 0.3007 (  3582 PWs)   bands (ev):

   -27.6137 -10.3480  -9.4620  -9.0159  -7.2015  -6.4966   4.0258   5.4202
     7.7419   7.9489   9.5733  10.1631

          k =-0.2343 0.1353 0.5012 (  3572 PWs)   bands (ev):

   -27.5052 -10.5993  -9.4143  -8.9158  -7.2083  -6.1336   2.6465   4.0105
     8.1511   8.4408   9.2470  10.1086

          k =-0.3905 0.2255 0.1002 (  3600 PWs)   bands (ev):

   -27.6898 -10.8774  -9.1694  -8.8825  -7.3830  -6.4682   6.2006   6.6970
     7.3749   7.5304   9.9235  10.3473

          k =-0.3905 0.2255 0.3007 (  3588 PWs)   bands (ev):

   -27.5877 -10.5020  -9.5085  -9.0660  -7.1363  -6.5216   4.4838   4.7861
     7.5984   8.3724  10.0110  10.0582

          k =-0.3905 0.2255 0.5012 (  3591 PWs)   bands (ev):

   -27.4826 -10.3181  -9.7508  -8.9590  -7.4022  -6.1308   3.0898   3.3889
     7.6556   9.1000   9.9233   9.9609

!    total energy              =    -139.80968274 Ry
     Harris-Foulkes estimate   =    -139.80968274 Ry
     estimated scf accuracy    <          1.6E-09 Ry

     The total energy is the sum of the following terms:

     one-electron contribution =     -17.30398115 Ry
     hartree contribution      =      24.06579291 Ry
     xc contribution           =     -26.51823173 Ry
     ewald contribution        =    -120.05326278 Ry

     convergence has been achieved in  11 iterations

     Forces acting on atoms (Ry/au):

     atom    1 type  3   force =     0.00000000    0.00000000    0.00000093
     atom    2 type  2   force =     0.00000000    0.00000000   -0.00019992
     atom    3 type  2   force =     0.00000000    0.00000000    0.00018746
     atom    4 type  1   force =     0.00000000    0.00000000    0.00013243
     atom    5 type  1   force =    -0.00000000   -0.00000000   -0.00012090

     Total force =     0.000328     Total SCF correction =     0.000063
     SCF correction compared to forces is large: reduce conv_thr to get better values


     entering subroutine stress ...

          total   stress  (Ry/bohr**3)                   (kbar)     P=  707.56
   0.00484638  -0.00000000  -0.00000000        712.93     -0.00     -0.00
  -0.00000000   0.00484638  -0.00000000         -0.00    712.93     -0.00
  -0.00000000  -0.00000000   0.00473697         -0.00     -0.00    696.83


     Writing output data file CaOH2_ambient.save

     init_run     :     49.96s CPU     50.51s WALL (       2 calls)
     electrons    :   2776.40s CPU   2814.11s WALL (      19 calls)
     update_pot   :    773.11s CPU    785.75s WALL (      17 calls)
     forces       :    283.33s CPU    284.60s WALL (      19 calls)
     stress       :    631.08s CPU    633.11s WALL (      19 calls)

     Called by init_run:
     wfcinit      :     12.38s CPU     12.65s WALL (       2 calls)
     potinit      :     15.80s CPU     15.92s WALL (       2 calls)

     Called by electrons:
     c_bands      :   2348.36s CPU   2377.19s WALL (     153 calls)
     sum_band     :    390.71s CPU    398.30s WALL (     153 calls)
     v_of_rho     :     19.82s CPU     20.22s WALL (     169 calls)
     mix_rho      :     18.86s CPU     19.53s WALL (     153 calls)

     Called by c_bands:
     init_us_2    :     69.94s CPU     74.87s WALL (   21798 calls)
     cegterg      :   2311.08s CPU   2324.17s WALL (    9639 calls)

     Called by *egterg:
     h_psi        :   1782.10s CPU   1791.34s WALL (   31235 calls)
     g_psi        :     14.70s CPU     14.86s WALL (   21470 calls)
     cdiaghg      :     15.33s CPU     15.52s WALL (   29849 calls)

     Called by h_psi:
     add_vuspsi   :     42.28s CPU     42.48s WALL (   31235 calls)

     General routines
     calbec       :     48.86s CPU     49.38s WALL (   33629 calls)
     fft          :      5.93s CPU      5.97s WALL (    2015 calls)
     ffts         :      8.36s CPU      8.42s WALL (    2843 calls)
     fftw         :   1639.71s CPU   1645.85s WALL (  762548 calls)
     davcio       :      7.15s CPU     23.27s WALL (   31437 calls)


     PWSCF        :     1h15m CPU        1h16m WALL


   This run was terminated on:   4:55:16  20Apr2014            

=------------------------------------------------------------------------------=
   JOB DONE.
=------------------------------------------------------------------------------=
