
     Program PWSCF v.5.0.2 (svn rev. 9392) starts on 19Apr2014 at 11:41:27 

     This program is part of the open-source Quantum ESPRESSO suite
     for quantum simulation of materials; please cite
         "P. Giannozzi et al., J. Phys.:Condens. Matter 21 395502 (2009);
          URL http://www.quantum-espresso.org", 
     in publications or presentations arising from this work. More details at
     http://www.quantum-espresso.org/quote.php

     Serial version

     Current dimensions of program PWSCF are:
     Max number of different atomic species (ntypx) = 10
     Max number of k-points (npk) =  40000
     Max angular momentum in pseudopotentials (lmaxx) =  3
     Waiting for input...
     Reading input from standard input

     G-vector sticks info
     --------------------
     sticks:   dense  smooth     PW     G-vecs:    dense   smooth      PW
     Sum         913     913    337                26553    26553    5967



     bravais-lattice index     =            4
     lattice parameter (alat)  =       6.3764  a.u.
     unit-cell volume          =     274.6567 (a.u.)^3
     number of atoms/cell      =            5
     number of atomic types    =            3
     number of electrons       =        24.00
     number of Kohn-Sham states=           12
     kinetic-energy cutoff     =     100.0000  Ry
     charge density cutoff     =     320.0000  Ry
     convergence threshold     =      1.0E-06
     mixing beta               =       0.3000
     number of iterations used =           16  local-TF  mixing
     Exchange-correlation      = PBE ( 1 4 3 4 0)
     EXX-fraction              =        0.00
     nstep                     =           50


     celldm(1)=   6.376400  celldm(2)=   0.000000  celldm(3)=   1.223300
     celldm(4)=   0.000000  celldm(5)=   0.000000  celldm(6)=   0.000000

     crystal axes: (cart. coord. in units of alat)
               a(1) = (   1.000000   0.000000   0.000000 )  
               a(2) = (  -0.500000   0.866025   0.000000 )  
               a(3) = (   0.000000   0.000000   1.223300 )  

     reciprocal axes: (cart. coord. in units 2 pi/alat)
               b(1) = (  1.000000  0.577350 -0.000000 )  
               b(2) = (  0.000000  1.154701  0.000000 )  
               b(3) = (  0.000000 -0.000000  0.817461 )  


     PseudoPot. # 1 for H  read from file:
     /home/ilia/espresso/pseudo/H.pbe-sp-mt.ncpp
     MD5 check sum: 7a641936b52ccecd26bd1ad87cca5aed
     Pseudo is Norm-conserving, Zval =  1.0
     Generated by old ld1 code (numerical format)
     Using radial grid of 1076 points,  0 beta functions with: 

     PseudoPot. # 2 for O  read from file:
     /home/ilia/espresso/pseudo/O.pbe-sp-mt.ncpp
     MD5 check sum: 8a3d23d410d2f3ebfd0a39faacc72cbb
     Pseudo is Norm-conserving, Zval =  6.0
     Generated by old ld1 code (numerical format)
     Using radial grid of 1130 points,  1 beta functions with: 
                l(1) =   1

     PseudoPot. # 3 for Ca read from file:
     /home/ilia/espresso/pseudo/Ca.pbe-sp-mt_ion2.ncpp
     MD5 check sum: 4bcd670d05521f7b178fdf0a334578ab
     Pseudo is Norm-conserving, Zval = 10.0
     Generated by old ld1 code (numerical format)
     Using radial grid of 1153 points,  1 beta functions with: 
                l(1) =   1

     atomic species   valence    mass     pseudopotential
        H              1.00     1.00700     H ( 1.00)
        O              6.00    16.00000     O ( 1.00)
        Ca            10.00    40.07800     Ca( 1.00)

     12 Sym. Ops., with inversion, found



   Cartesian axes

     site n.     atom                  positions (alat units)
         1           Ca  tau(   1) = (   0.0000000   0.0000000   0.0000000  )
         2           O   tau(   2) = (   0.0000000   0.5773503   0.2850289  )
         3           O   tau(   3) = (   0.5000000   0.2886751   0.9382711  )
         4           H   tau(   4) = (   0.0000000   0.5773503   0.5309122  )
         5           H   tau(   5) = (   0.5000000   0.2886751   0.6923878  )

     number of k points=    63
                       cart. coord. in units 2pi/alat
        k(    1) = (   0.0833333   0.1443376   0.0681217), wk =   0.0370370
        k(    2) = (   0.0833333   0.1443376   0.2043652), wk =   0.0370370
        k(    3) = (   0.0833333   0.1443376   0.3406087), wk =   0.0370370
        k(    4) = (   0.0833333   0.3367877   0.0681217), wk =   0.0370370
        k(    5) = (   0.0833333   0.3367877   0.2043652), wk =   0.0370370
        k(    6) = (   0.0833333   0.3367877   0.3406087), wk =   0.0370370
        k(    7) = (   0.0833333   0.5292377   0.0681217), wk =   0.0370370
        k(    8) = (   0.0833333   0.5292377   0.2043652), wk =   0.0370370
        k(    9) = (   0.0833333   0.5292377   0.3406087), wk =   0.0370370
        k(   10) = (   0.0833333  -0.4330127   0.0681217), wk =   0.0370370
        k(   11) = (   0.0833333  -0.4330127   0.2043652), wk =   0.0370370
        k(   12) = (   0.0833333  -0.4330127   0.3406087), wk =   0.0370370
        k(   13) = (   0.0833333  -0.2405626   0.0681217), wk =   0.0370370
        k(   14) = (   0.0833333  -0.2405626   0.2043652), wk =   0.0370370
        k(   15) = (   0.0833333  -0.2405626   0.3406087), wk =   0.0370370
        k(   16) = (   0.0833333  -0.0481125   0.0681217), wk =   0.0185185
        k(   17) = (   0.0833333  -0.0481125   0.2043652), wk =   0.0185185
        k(   18) = (   0.0833333  -0.0481125   0.3406087), wk =   0.0185185
        k(   19) = (   0.2500000   0.4330127   0.0681217), wk =   0.0370370
        k(   20) = (   0.2500000   0.4330127   0.2043652), wk =   0.0370370
        k(   21) = (   0.2500000   0.4330127   0.3406087), wk =   0.0370370
        k(   22) = (   0.2500000   0.6254628   0.0681217), wk =   0.0370370
        k(   23) = (   0.2500000   0.6254628   0.2043652), wk =   0.0370370
        k(   24) = (   0.2500000   0.6254628   0.3406087), wk =   0.0370370
        k(   25) = (   0.2500000  -0.3367877   0.0681217), wk =   0.0370370
        k(   26) = (   0.2500000  -0.3367877   0.2043652), wk =   0.0370370
        k(   27) = (   0.2500000  -0.3367877   0.3406087), wk =   0.0370370
        k(   28) = (   0.2500000  -0.1443376   0.0681217), wk =   0.0185185
        k(   29) = (   0.2500000  -0.1443376   0.2043652), wk =   0.0185185
        k(   30) = (   0.2500000  -0.1443376   0.3406087), wk =   0.0185185
        k(   31) = (   0.4166667   0.7216878   0.0681217), wk =   0.0370370
        k(   32) = (   0.4166667   0.7216878   0.2043652), wk =   0.0370370
        k(   33) = (   0.4166667   0.7216878   0.3406087), wk =   0.0370370
        k(   34) = (   0.4166667  -0.2405626   0.0681217), wk =   0.0185185
        k(   35) = (   0.4166667  -0.2405626   0.2043652), wk =   0.0185185
        k(   36) = (   0.4166667  -0.2405626   0.3406087), wk =   0.0185185
        k(   37) = (  -0.0833333   0.3367877  -0.0681217), wk =   0.0370370
        k(   38) = (  -0.0833333   0.3367877  -0.2043652), wk =   0.0370370
        k(   39) = (  -0.0833333   0.3367877  -0.3406087), wk =   0.0370370
        k(   40) = (  -0.0833333   0.5292377  -0.0681217), wk =   0.0370370
        k(   41) = (  -0.0833333   0.5292377  -0.2043652), wk =   0.0370370
        k(   42) = (  -0.0833333   0.5292377  -0.3406087), wk =   0.0370370
        k(   43) = (  -0.0833333  -0.4330127  -0.0681217), wk =   0.0370370
        k(   44) = (  -0.0833333  -0.4330127  -0.2043652), wk =   0.0370370
        k(   45) = (  -0.0833333  -0.4330127  -0.3406087), wk =   0.0370370
        k(   46) = (  -0.0833333  -0.2405626  -0.0681217), wk =   0.0370370
        k(   47) = (  -0.0833333  -0.2405626  -0.2043652), wk =   0.0370370
        k(   48) = (  -0.0833333  -0.2405626  -0.3406087), wk =   0.0370370
        k(   49) = (  -0.0833333  -0.0481125  -0.0681217), wk =   0.0185185
        k(   50) = (  -0.0833333  -0.0481125  -0.2043652), wk =   0.0185185
        k(   51) = (  -0.0833333  -0.0481125  -0.3406087), wk =   0.0185185
        k(   52) = (  -0.2500000   0.6254628  -0.0681217), wk =   0.0370370
        k(   53) = (  -0.2500000   0.6254628  -0.2043652), wk =   0.0370370
        k(   54) = (  -0.2500000   0.6254628  -0.3406087), wk =   0.0370370
        k(   55) = (  -0.2500000  -0.3367877  -0.0681217), wk =   0.0370370
        k(   56) = (  -0.2500000  -0.3367877  -0.2043652), wk =   0.0370370
        k(   57) = (  -0.2500000  -0.3367877  -0.3406087), wk =   0.0370370
        k(   58) = (  -0.2500000  -0.1443376  -0.0681217), wk =   0.0185185
        k(   59) = (  -0.2500000  -0.1443376  -0.2043652), wk =   0.0185185
        k(   60) = (  -0.2500000  -0.1443376  -0.3406087), wk =   0.0185185
        k(   61) = (  -0.4166667  -0.2405626  -0.0681217), wk =   0.0185185
        k(   62) = (  -0.4166667  -0.2405626  -0.2043652), wk =   0.0185185
        k(   63) = (  -0.4166667  -0.2405626  -0.3406087), wk =   0.0185185

     Dense  grid:    26553 G-vectors     FFT dimensions: (  40,  40,  45)

     Largest allocated arrays     est. size (Mb)     dimensions
        Kohn-Sham Wavefunctions         0.85 Mb     (   4667,   12)
        NL pseudopotentials             0.64 Mb     (   4667,    9)
        Each V/rho on FFT grid          1.10 Mb     (  72000)
        Each G-vector array             0.20 Mb     (  26553)
        G-vector shells                 0.20 Mb     (  26553)
     Largest temporary arrays     est. size (Mb)     dimensions
        Auxiliary wavefunctions         3.42 Mb     (   4667,   48)
        Each subspace H/S matrix        0.04 Mb     (  48,  48)
        Each <psi_i|beta_j> matrix      0.00 Mb     (      9,   12)
        Arrays for rho mixing          17.58 Mb     (  72000,  16)

     Initial potential from superposition of free atoms

     starting charge   21.99998, renormalised to   24.00000
     Starting wfc are   14 randomized atomic wfcs

     total cpu time spent up to now is       40.2 secs

     per-process dynamical memory:    16.3 Mb

     Self-consistent Calculation

     iteration #  1     ecut=   100.00 Ry     beta=0.30
     Davidson diagonalization with overlap
     ethr =  1.00E-02,  avg # of iterations =  2.0

     total cpu time spent up to now is       57.5 secs

     total energy              =    -140.02133883 Ry
     Harris-Foulkes estimate   =    -140.10522362 Ry
     estimated scf accuracy    <       0.46938961 Ry

     iteration #  2     ecut=   100.00 Ry     beta=0.30
     Davidson diagonalization with overlap
     ethr =  1.96E-03,  avg # of iterations =  1.0

     total cpu time spent up to now is       70.1 secs

     total energy              =    -139.85539443 Ry
     Harris-Foulkes estimate   =    -140.02809385 Ry
     estimated scf accuracy    <       0.28658680 Ry

     iteration #  3     ecut=   100.00 Ry     beta=0.30
     Davidson diagonalization with overlap
     ethr =  1.19E-03,  avg # of iterations =  2.0

     total cpu time spent up to now is       86.9 secs

     total energy              =    -139.90618774 Ry
     Harris-Foulkes estimate   =    -139.90859769 Ry
     estimated scf accuracy    <       0.02099911 Ry

     iteration #  4     ecut=   100.00 Ry     beta=0.30
     Davidson diagonalization with overlap
     ethr =  8.75E-05,  avg # of iterations =  1.0

     total cpu time spent up to now is       99.6 secs

     total energy              =    -139.90082865 Ry
     Harris-Foulkes estimate   =    -139.90662985 Ry
     estimated scf accuracy    <       0.01250990 Ry

     iteration #  5     ecut=   100.00 Ry     beta=0.30
     Davidson diagonalization with overlap
     ethr =  5.21E-05,  avg # of iterations =  2.0

     total cpu time spent up to now is      116.6 secs

     total energy              =    -139.90372936 Ry
     Harris-Foulkes estimate   =    -139.90365328 Ry
     estimated scf accuracy    <       0.00282030 Ry

     iteration #  6     ecut=   100.00 Ry     beta=0.30
     Davidson diagonalization with overlap
     ethr =  1.18E-05,  avg # of iterations =  1.0

     total cpu time spent up to now is      128.9 secs

     total energy              =    -139.90246633 Ry
     Harris-Foulkes estimate   =    -139.90374139 Ry
     estimated scf accuracy    <       0.00307562 Ry

     iteration #  7     ecut=   100.00 Ry     beta=0.30
     Davidson diagonalization with overlap
     ethr =  1.18E-05,  avg # of iterations =  2.0

     total cpu time spent up to now is      144.0 secs

     total energy              =    -139.90281118 Ry
     Harris-Foulkes estimate   =    -139.90287650 Ry
     estimated scf accuracy    <       0.00022665 Ry

     iteration #  8     ecut=   100.00 Ry     beta=0.30
     Davidson diagonalization with overlap
     ethr =  9.44E-07,  avg # of iterations =  2.0

     total cpu time spent up to now is      157.4 secs

     total energy              =    -139.90281624 Ry
     Harris-Foulkes estimate   =    -139.90282583 Ry
     estimated scf accuracy    <       0.00003738 Ry

     iteration #  9     ecut=   100.00 Ry     beta=0.30
     Davidson diagonalization with overlap
     ethr =  1.56E-07,  avg # of iterations =  2.0

     total cpu time spent up to now is      172.5 secs

     total energy              =    -139.90281750 Ry
     Harris-Foulkes estimate   =    -139.90282144 Ry
     estimated scf accuracy    <       0.00000708 Ry

     iteration # 10     ecut=   100.00 Ry     beta=0.30
     Davidson diagonalization with overlap
     ethr =  2.95E-08,  avg # of iterations =  2.1

     total cpu time spent up to now is      189.5 secs

     total energy              =    -139.90281835 Ry
     Harris-Foulkes estimate   =    -139.90281991 Ry
     estimated scf accuracy    <       0.00000329 Ry

     iteration # 11     ecut=   100.00 Ry     beta=0.30
     Davidson diagonalization with overlap
     ethr =  1.37E-08,  avg # of iterations =  2.1

     total cpu time spent up to now is      206.8 secs

     End of self-consistent calculation

          k = 0.0833 0.1443 0.0681 (  4615 PWs)   bands (ev):

   -30.3181 -13.3809 -13.0595 -11.6630 -11.3563 -10.5512  -0.2007   1.9107
     4.3152   4.4475   5.4972   5.9647

          k = 0.0833 0.1443 0.2044 (  4630 PWs)   bands (ev):

   -30.3161 -13.6111 -12.8331 -11.6607 -11.2643 -10.6475  -0.0714   1.5317
     4.3693   4.6799   5.4340   5.8655

          k = 0.0833 0.1443 0.3406 (  4635 PWs)   bands (ev):

   -30.3141 -13.7498 -12.6992 -11.6583 -11.1206 -10.7948   0.1396   1.0960
     4.5436   4.7951   5.4253   5.6770

          k = 0.0833 0.3368 0.0681 (  4639 PWs)   bands (ev):

   -30.2671 -13.7195 -12.9360 -11.7845 -11.2100 -10.6489   0.3383   1.4966
     4.2360   4.5243   4.9504   5.8120

          k = 0.0833 0.3368 0.2044 (  4642 PWs)   bands (ev):

   -30.2655 -13.5660 -13.1569 -11.7802 -11.2500 -10.5416   0.2615   1.2005
     4.4542   4.5238   5.1725   5.8077

          k = 0.0833 0.3368 0.3406 (  4630 PWs)   bands (ev):

   -30.2639 -13.4438 -13.3015 -11.7782 -11.2494 -10.5351   0.3248   0.8810
     4.5348   4.8153   5.2297   5.6499

          k = 0.0833 0.5292 0.0681 (  4648 PWs)   bands (ev):

   -30.2292 -14.0129 -12.5518 -11.9274 -11.5505 -10.4572   0.8264   1.2113
     3.5670   4.7855   5.0367   5.6250

          k = 0.0833 0.5292 0.2044 (  4647 PWs)   bands (ev):

   -30.2279 -13.9203 -12.6644 -11.9422 -11.5961 -10.3962   0.5414   1.1517
     3.9882   4.6363   5.1714   5.6518

          k = 0.0833 0.5292 0.3406 (  4639 PWs)   bands (ev):

   -30.2266 -13.8340 -12.7394 -11.9701 -11.6349 -10.3680   0.3565   1.0752
     4.4897   4.5720   5.0951   5.6193

          k = 0.0833-0.4330 0.0681 (  4642 PWs)   bands (ev):

   -30.2431 -13.9485 -12.6409 -11.8645 -11.3724 -10.6172   0.7765   1.2537
     3.8227   4.8543   4.8847   5.5246

          k = 0.0833-0.4330 0.2044 (  4639 PWs)   bands (ev):

   -30.2417 -13.8927 -12.6997 -11.8718 -11.4097 -10.5938   0.8232   0.9034
     4.2589   4.7785   5.0687   5.3341

          k = 0.0833-0.4330 0.3406 (  4636 PWs)   bands (ev):

   -30.2403 -13.7688 -12.8822 -11.8683 -11.4671 -10.4864   0.5089   0.8799
     4.6470   4.8138   4.9303   5.4777

          k = 0.0833-0.2406 0.0681 (  4618 PWs)   bands (ev):

   -30.2945 -13.5654 -12.9908 -11.7180 -11.1389 -10.7440   0.0862   1.7046
     4.4131   4.5934   5.0260   5.7825

          k = 0.0833-0.2406 0.2044 (  4633 PWs)   bands (ev):

   -30.2927 -13.6157 -12.9719 -11.7153 -11.0160 -10.8438   0.1776   1.3221
     4.4751   4.8672   5.1393   5.5885

          k = 0.0833-0.2406 0.3406 (  4640 PWs)   bands (ev):

   -30.2909 -13.6248 -13.0098 -11.7117 -10.9622 -10.8513   0.3115   0.9004
     4.6292   4.8911   5.3159   5.5017

          k = 0.0833-0.0481 0.0681 (  4636 PWs)   bands (ev):

   -30.3317 -13.3500 -12.9800 -11.6347 -11.5185 -10.4418  -0.3558   2.0411
     4.2487   4.3410   5.8132   6.0750

          k = 0.0833-0.0481 0.2044 (  4631 PWs)   bands (ev):

   -30.3296 -13.6597 -12.6229 -11.6326 -11.4632 -10.5574  -0.1912   1.6699
     4.3231   4.5315   5.6505   5.9688

          k = 0.0833-0.0481 0.3406 (  4624 PWs)   bands (ev):

   -30.3275 -13.8343 -12.3972 -11.6308 -11.3680 -10.7179   0.0597   1.2353
     4.4969   4.6729   5.5437   5.7324

          k = 0.2500 0.4330 0.0681 (  4667 PWs)   bands (ev):

   -30.2294 -13.7996 -13.0571 -11.9297 -10.9966 -10.7134   0.8444   1.1879
     3.8321   4.5630   4.7081   5.8906

          k = 0.2500 0.4330 0.2044 (  4643 PWs)   bands (ev):

   -30.2280 -13.7157 -13.1068 -11.9498 -11.0909 -10.6687   0.7646   1.0021
     4.1675   4.5783   4.9222   5.6418

          k = 0.2500 0.4330 0.3406 (  4626 PWs)   bands (ev):

   -30.2266 -13.6052 -13.1852 -11.9669 -11.1666 -10.6438   0.6976   0.8349
     4.5363   4.7324   5.0865   5.2392

          k = 0.2500 0.6255 0.0681 (  4661 PWs)   bands (ev):

   -30.2192 -13.7544 -13.1976 -11.9235 -10.9852 -10.6823   1.0183   1.0617
     3.7054   4.5567   4.6511   5.9646

          k = 0.2500 0.6255 0.2044 (  4640 PWs)   bands (ev):

   -30.2179 -13.6949 -13.1906 -11.9489 -11.0632 -10.6951   0.8774   0.9892
     4.0374   4.6160   4.8050   5.6715

          k = 0.2500 0.6255 0.3406 (  4639 PWs)   bands (ev):

   -30.2166 -13.6181 -13.2023 -11.9731 -11.1437 -10.7041   0.7329   0.9350
     4.5278   4.7159   4.9090   5.2158

          k = 0.2500-0.3368 0.0681 (  4648 PWs)   bands (ev):

   -30.2469 -13.7955 -12.9400 -11.8901 -11.0914 -10.6909   0.5970   1.3408
     4.0272   4.5743   4.8145   5.8135

          k = 0.2500-0.3368 0.2044 (  4636 PWs)   bands (ev):

   -30.2454 -13.6756 -13.0848 -11.8939 -11.1723 -10.5946   0.5046   1.0978
     4.3392   4.5246   5.1009   5.6656

          k = 0.2500-0.3368 0.3406 (  4629 PWs)   bands (ev):

   -30.2440 -13.5398 -13.2267 -11.8985 -11.2133 -10.5649   0.5026   0.8418
     4.5431   4.7469   5.2389   5.4063

          k = 0.2500-0.1443 0.0681 (  4638 PWs)   bands (ev):

   -30.2845 -13.5951 -13.0154 -11.7107 -11.2417 -10.6388   0.1392   1.6279
     4.4330   4.4458   5.0022   5.8891

          k = 0.2500-0.1443 0.2044 (  4624 PWs)   bands (ev):

   -30.2827 -13.4502 -13.2308 -11.7079 -11.2427 -10.5610   0.1147   1.2907
     4.3999   4.7152   5.1206   5.9262

          k = 0.2500-0.1443 0.3406 (  4640 PWs)   bands (ev):

   -30.2810 -13.4897 -13.2142 -11.7054 -11.2028 -10.5908   0.2403   0.9195
     4.5191   4.9208   5.1999   5.7386

          k = 0.4167 0.7217 0.0681 (  4659 PWs)   bands (ev):

   -30.2229 -13.9196 -12.8754 -11.9352 -11.2546 -10.5447   0.9612   1.1131
     3.6111   4.6828   4.8031   5.8186

          k = 0.4167 0.7217 0.2044 (  4642 PWs)   bands (ev):

   -30.2216 -13.8467 -12.9028 -11.9622 -11.3301 -10.5256   0.7198   1.0865
     3.9979   4.6348   4.9717   5.6387

          k = 0.4167 0.7217 0.3406 (  4632 PWs)   bands (ev):

   -30.2202 -13.7635 -12.9407 -11.9896 -11.4005 -10.5108   0.5338   1.0367
     4.5107   4.6193   5.0105   5.3944

          k = 0.4167-0.2406 0.0681 (  4633 PWs)   bands (ev):

   -30.2367 -14.0014 -12.5127 -11.7853 -11.7151 -10.4456   0.6938   1.2876
     3.6383   4.7618   5.1793   5.5577

          k = 0.4167-0.2406 0.2044 (  4637 PWs)   bands (ev):

   -30.2353 -13.8902 -12.7002 -11.7819 -11.7381 -10.3559   0.4207   1.1726
     4.0502   4.5911   5.2695   5.7189

          k = 0.4167-0.2406 0.3406 (  4637 PWs)   bands (ev):

   -30.2339 -13.8055 -12.7920 -11.7825 -11.7786 -10.3311   0.2826   1.0509
     4.5202   4.5468   5.1577   5.7258

          k =-0.0833 0.3368-0.0681 (  4639 PWs)   bands (ev):

   -30.2671 -13.7831 -12.8289 -11.7876 -11.1287 -10.7884   0.4404   1.4742
     4.2416   4.7313   4.8047   5.6189

          k =-0.0833 0.3368-0.2044 (  4642 PWs)   bands (ev):

   -30.2655 -13.7486 -12.8908 -11.7860 -11.1201 -10.7848   0.5105   1.0974
     4.5306   4.8089   5.0646   5.3194

          k =-0.0833 0.3368-0.3406 (  4630 PWs)   bands (ev):

   -30.2639 -13.6235 -13.0815 -11.7809 -11.2027 -10.6373   0.5287   0.7451
     4.6776   4.9004   5.1393   5.4017

          k =-0.0833 0.5292-0.0681 (  4648 PWs)   bands (ev):

   -30.2292 -14.0291 -12.5033 -11.9377 -11.5466 -10.4912   0.9699   1.1093
     3.5653   4.8760   4.9726   5.5408

          k =-0.0833 0.5292-0.2044 (  4647 PWs)   bands (ev):

   -30.2279 -13.9592 -12.5580 -11.9671 -11.5931 -10.4581   0.6940   1.0738
     4.0120   4.7410   5.0766   5.5070

          k =-0.0833 0.5292-0.3406 (  4639 PWs)   bands (ev):

   -30.2266 -13.8585 -12.6801 -11.9847 -11.6348 -10.3964   0.4119   1.0543
     4.5454   4.6272   4.9863   5.5645

          k =-0.0833-0.4330-0.0681 (  4642 PWs)   bands (ev):

   -30.2431 -13.9032 -12.7415 -11.8558 -11.4018 -10.5224   0.6074   1.3318
     3.8153   4.6580   5.0299   5.7183

          k =-0.0833-0.4330-0.2044 (  4639 PWs)   bands (ev):

   -30.2417 -13.7769 -12.9246 -11.8538 -11.4496 -10.4249   0.4071   1.1548
     4.1791   4.5387   5.2261   5.7483

          k =-0.0833-0.4330-0.3406 (  4636 PWs)   bands (ev):

   -30.2403 -13.6877 -13.0170 -11.8590 -11.4799 -10.4103   0.3411   0.9716
     4.5286   4.6183   5.2006   5.6409

          k =-0.0833-0.2406-0.0681 (  4618 PWs)   bands (ev):

   -30.2945 -13.5084 -13.0681 -11.7172 -11.1759 -10.6790   0.0498   1.7055
     4.3993   4.5681   5.0065   5.9027

          k =-0.0833-0.2406-0.2044 (  4633 PWs)   bands (ev):

   -30.2927 -13.5066 -13.1197 -11.7139 -11.1345 -10.6712   0.0923   1.3411
     4.3965   4.8763   5.0587   5.8512

          k =-0.0833-0.2406-0.3406 (  4640 PWs)   bands (ev):

   -30.2909 -13.5762 -13.0771 -11.7111 -11.0564 -10.7308   0.2465   0.9340
     4.5367   4.9648   5.2229   5.6654

          k =-0.0833-0.0481-0.0681 (  4636 PWs)   bands (ev):

   -30.3317 -13.3642 -12.9614 -11.6348 -11.5187 -10.4471  -0.3513   2.0421
     4.2740   4.3152   5.9004   5.9768

          k =-0.0833-0.0481-0.2044 (  4631 PWs)   bands (ev):

   -30.3296 -13.6684 -12.6049 -11.6330 -11.4625 -10.5698  -0.1811   1.6705
     4.3651   4.4871   5.7421   5.8601

          k =-0.0833-0.0481-0.3406 (  4624 PWs)   bands (ev):

   -30.3275 -13.8372 -12.3893 -11.6309 -11.3659 -10.7261   0.0663   1.2339
     4.5585   4.6074   5.5909   5.6807

          k =-0.2500 0.6255-0.0681 (  4661 PWs)   bands (ev):

   -30.2192 -13.7477 -13.2067 -11.9231 -10.9954 -10.6688   0.9621   1.1114
     3.7041   4.5657   4.6432   5.9742

          k =-0.2500 0.6255-0.2044 (  4640 PWs)   bands (ev):

   -30.2179 -13.6784 -13.2126 -11.9476 -11.0782 -10.6735   0.8196   1.0347
     4.0298   4.6075   4.8202   5.6902

          k =-0.2500 0.6255-0.3406 (  4639 PWs)   bands (ev):

   -30.2166 -13.6073 -13.2163 -11.9722 -11.1494 -10.6949   0.7137   0.9485
     4.5202   4.6739   4.9759   5.2068

          k =-0.2500-0.3368-0.0681 (  4648 PWs)   bands (ev):

   -30.2469 -13.8231 -12.8927 -11.8937 -11.0335 -10.7732   0.6628   1.3137
     4.0389   4.6293   4.7630   5.7399

          k =-0.2500-0.3368-0.2044 (  4636 PWs)   bands (ev):

   -30.2454 -13.7518 -12.9688 -11.9016 -11.1054 -10.7102   0.6709   1.0023
     4.3973   4.5945   5.0369   5.4924

          k =-0.2500-0.3368-0.3406 (  4629 PWs)   bands (ev):

   -30.2440 -13.6121 -13.1344 -11.9024 -11.1907 -10.6117   0.6717   0.7057
     4.5918   4.8419   5.1228   5.3270

          k =-0.2500-0.1443-0.0681 (  4638 PWs)   bands (ev):

   -30.2845 -13.6859 -12.8783 -11.7110 -11.1665 -10.7794   0.2303   1.6198
     4.3829   4.6394   4.9734   5.6359

          k =-0.2500-0.1443-0.2044 (  4624 PWs)   bands (ev):

   -30.2827 -13.7011 -12.8921 -11.7085 -11.0600 -10.8694   0.3311   1.2277
     4.5562   4.8982   5.1416   5.3097

          k =-0.2500-0.1443-0.3406 (  4640 PWs)   bands (ev):

   -30.2810 -13.6345 -13.0274 -11.7057 -11.1278 -10.7268   0.4086   0.8233
     4.7768   4.7910   5.2691   5.4224

          k =-0.4167-0.2406-0.0681 (  4633 PWs)   bands (ev):

   -30.2366 -14.0355 -12.4054 -11.7855 -11.7345 -10.5168   0.8957   1.1729
     3.6363   4.9763   5.0827   5.3152

          k =-0.4167-0.2406-0.2044 (  4637 PWs)   bands (ev):

   -30.2353 -13.9735 -12.4768 -11.7824 -11.7822 -10.4867   0.7519   0.9978
     4.1029   4.8836   5.0365   5.3705

          k =-0.4167-0.2406-0.3406 (  4637 PWs)   bands (ev):

   -30.2339 -13.8594 -12.6711 -11.8064 -11.7788 -10.3916   0.4049   1.0005
     4.6517   4.6550   4.9417   5.5897

!    total energy              =    -139.90281885 Ry
     Harris-Foulkes estimate   =    -139.90281944 Ry
     estimated scf accuracy    <       0.00000082 Ry

     The total energy is the sum of the following terms:

     one-electron contribution =     -47.54928532 Ry
     hartree contribution      =      35.95371700 Ry
     xc contribution           =     -26.59828652 Ry
     ewald contribution        =    -101.70896401 Ry

     convergence has been achieved in  11 iterations

     Forces acting on atoms (Ry/au):

     atom    1 type  3   force =     0.00000000    0.00000000    0.00000000
     atom    2 type  2   force =     0.00000000    0.00000000   -0.26814334
     atom    3 type  2   force =     0.00000000   -0.00000000    0.26814334
     atom    4 type  1   force =     0.00000000    0.00000000    0.37778630
     atom    5 type  1   force =     0.00000000   -0.00000000   -0.37778630

     Total force =     0.655169     Total SCF correction =     0.001783


     entering subroutine stress ...

          total   stress  (Ry/bohr**3)                   (kbar)     P=  593.90
   0.00278927   0.00000000   0.00000000        410.32      0.00      0.00
   0.00000000   0.00278927   0.00000000          0.00    410.32      0.00
   0.00000000   0.00000000   0.00653324          0.00      0.00    961.07


     BFGS Geometry Optimization

     number of scf cycles    =   1
     number of bfgs steps    =   0

     enthalpy new            =    -137.6623241599 Ry

     new trust radius        =       0.4448269015 bohr
     new conv_thr            =       0.0000010000 Ry

     new unit-cell volume =    197.52353 a.u.^3 (    29.26997 Ang^3 )

CELL_PARAMETERS (alat=  6.37640000)
   0.865795858  -0.000000000   0.000000000
  -0.432897929   0.749801208   0.000000000
   0.000000000   0.000000000   1.173628186

ATOMIC_POSITIONS (crystal)
Ca       0.000000000   0.000000000   0.000000000
O        0.333333333   0.666666667   0.198623751
O        0.666666667   0.333333333   0.801376249
H        0.333333333   0.666666667   0.482432588
H        0.666666667   0.333333333   0.517567412



     Writing output data file CaOH2_ambient.save
     NEW-OLD atomic charge density approx. for the potential
     NEW k-points:
        k(    1) = (   0.0962506   0.1667109   0.0710049), wk =   0.0370370
        k(    2) = (   0.0962506   0.1667109   0.2130147), wk =   0.0370370
        k(    3) = (   0.0962506   0.1667109   0.3550244), wk =   0.0370370
        k(    4) = (   0.0962506   0.3889920   0.0710049), wk =   0.0370370
        k(    5) = (   0.0962506   0.3889920   0.2130147), wk =   0.0370370
        k(    6) = (   0.0962506   0.3889920   0.3550244), wk =   0.0370370
        k(    7) = (   0.0962506   0.6112731   0.0710049), wk =   0.0370370
        k(    8) = (   0.0962506   0.6112731   0.2130147), wk =   0.0370370
        k(    9) = (   0.0962506   0.6112731   0.3550244), wk =   0.0370370
        k(   10) = (   0.0962506  -0.5001326   0.0710049), wk =   0.0370370
        k(   11) = (   0.0962506  -0.5001326   0.2130147), wk =   0.0370370
        k(   12) = (   0.0962506  -0.5001326   0.3550244), wk =   0.0370370
        k(   13) = (   0.0962506  -0.2778514   0.0710049), wk =   0.0370370
        k(   14) = (   0.0962506  -0.2778514   0.2130147), wk =   0.0370370
        k(   15) = (   0.0962506  -0.2778514   0.3550244), wk =   0.0370370
        k(   16) = (   0.0962506  -0.0555703   0.0710049), wk =   0.0185185
        k(   17) = (   0.0962506  -0.0555703   0.2130147), wk =   0.0185185
        k(   18) = (   0.0962506  -0.0555703   0.3550244), wk =   0.0185185
        k(   19) = (   0.2887517   0.5001326   0.0710049), wk =   0.0370370
        k(   20) = (   0.2887517   0.5001326   0.2130147), wk =   0.0370370
        k(   21) = (   0.2887517   0.5001326   0.3550244), wk =   0.0370370
        k(   22) = (   0.2887517   0.7224137   0.0710049), wk =   0.0370370
        k(   23) = (   0.2887517   0.7224137   0.2130147), wk =   0.0370370
        k(   24) = (   0.2887517   0.7224137   0.3550244), wk =   0.0370370
        k(   25) = (   0.2887517  -0.3889920   0.0710049), wk =   0.0370370
        k(   26) = (   0.2887517  -0.3889920   0.2130147), wk =   0.0370370
        k(   27) = (   0.2887517  -0.3889920   0.3550244), wk =   0.0370370
        k(   28) = (   0.2887517  -0.1667109   0.0710049), wk =   0.0185185
        k(   29) = (   0.2887517  -0.1667109   0.2130147), wk =   0.0185185
        k(   30) = (   0.2887517  -0.1667109   0.3550244), wk =   0.0185185
        k(   31) = (   0.4812528   0.8335543   0.0710049), wk =   0.0370370
        k(   32) = (   0.4812528   0.8335543   0.2130147), wk =   0.0370370
        k(   33) = (   0.4812528   0.8335543   0.3550244), wk =   0.0370370
        k(   34) = (   0.4812528  -0.2778514   0.0710049), wk =   0.0185185
        k(   35) = (   0.4812528  -0.2778514   0.2130147), wk =   0.0185185
        k(   36) = (   0.4812528  -0.2778514   0.3550244), wk =   0.0185185
        k(   37) = (  -0.0962506   0.3889920  -0.0710049), wk =   0.0370370
        k(   38) = (  -0.0962506   0.3889920  -0.2130147), wk =   0.0370370
        k(   39) = (  -0.0962506   0.3889920  -0.3550244), wk =   0.0370370
        k(   40) = (  -0.0962506   0.6112731  -0.0710049), wk =   0.0370370
        k(   41) = (  -0.0962506   0.6112731  -0.2130147), wk =   0.0370370
        k(   42) = (  -0.0962506   0.6112731  -0.3550244), wk =   0.0370370
        k(   43) = (  -0.0962506  -0.5001326  -0.0710049), wk =   0.0370370
        k(   44) = (  -0.0962506  -0.5001326  -0.2130147), wk =   0.0370370
        k(   45) = (  -0.0962506  -0.5001326  -0.3550244), wk =   0.0370370
        k(   46) = (  -0.0962506  -0.2778514  -0.0710049), wk =   0.0370370
        k(   47) = (  -0.0962506  -0.2778514  -0.2130147), wk =   0.0370370
        k(   48) = (  -0.0962506  -0.2778514  -0.3550244), wk =   0.0370370
        k(   49) = (  -0.0962506  -0.0555703  -0.0710049), wk =   0.0185185
        k(   50) = (  -0.0962506  -0.0555703  -0.2130147), wk =   0.0185185
        k(   51) = (  -0.0962506  -0.0555703  -0.3550244), wk =   0.0185185
        k(   52) = (  -0.2887517   0.7224137  -0.0710049), wk =   0.0370370
        k(   53) = (  -0.2887517   0.7224137  -0.2130147), wk =   0.0370370
        k(   54) = (  -0.2887517   0.7224137  -0.3550244), wk =   0.0370370
        k(   55) = (  -0.2887517  -0.3889920  -0.0710049), wk =   0.0370370
        k(   56) = (  -0.2887517  -0.3889920  -0.2130147), wk =   0.0370370
        k(   57) = (  -0.2887517  -0.3889920  -0.3550244), wk =   0.0370370
        k(   58) = (  -0.2887517  -0.1667109  -0.0710049), wk =   0.0185185
        k(   59) = (  -0.2887517  -0.1667109  -0.2130147), wk =   0.0185185
        k(   60) = (  -0.2887517  -0.1667109  -0.3550244), wk =   0.0185185
        k(   61) = (  -0.4812528  -0.2778514  -0.0710049), wk =   0.0185185
        k(   62) = (  -0.4812528  -0.2778514  -0.2130147), wk =   0.0185185
        k(   63) = (  -0.4812528  -0.2778514  -0.3550244), wk =   0.0185185

     negative rho (up, down):  0.386E-03 0.000E+00
     extrapolated charge   15.40898, renormalised to   24.00000

     total cpu time spent up to now is      302.5 secs

     per-process dynamical memory:    21.4 Mb

     Self-consistent Calculation

     iteration #  1     ecut=   100.00 Ry     beta=0.30
     Davidson diagonalization with overlap
     ethr =  1.00E-06,  avg # of iterations =  8.0

     total cpu time spent up to now is      346.5 secs

     total energy              =    -135.59845763 Ry
     Harris-Foulkes estimate   =    -152.35593009 Ry
     estimated scf accuracy    <       6.61100992 Ry

     iteration #  2     ecut=   100.00 Ry     beta=0.30
     Davidson diagonalization with overlap
     ethr =  1.00E-02,  avg # of iterations =  3.0

     total cpu time spent up to now is      368.1 secs

     total energy              =    -139.86293604 Ry
     Harris-Foulkes estimate   =    -140.26784049 Ry
     estimated scf accuracy    <       3.35182357 Ry

     iteration #  3     ecut=   100.00 Ry     beta=0.30
     Davidson diagonalization with overlap
     ethr =  1.00E-02,  avg # of iterations =  1.0

     total cpu time spent up to now is      380.4 secs

     total energy              =    -138.59270052 Ry
     Harris-Foulkes estimate   =    -139.88947895 Ry
     estimated scf accuracy    <       2.19601416 Ry

     iteration #  4     ecut=   100.00 Ry     beta=0.30
     Davidson diagonalization with overlap
     ethr =  9.15E-03,  avg # of iterations =  3.0

     total cpu time spent up to now is      397.3 secs

     total energy              =    -139.39533080 Ry
     Harris-Foulkes estimate   =    -139.36509300 Ry
     estimated scf accuracy    <       0.38525112 Ry

     iteration #  5     ecut=   100.00 Ry     beta=0.30
     Davidson diagonalization with overlap
     ethr =  1.61E-03,  avg # of iterations =  1.0

     total cpu time spent up to now is      409.7 secs

     total energy              =    -139.21303859 Ry
     Harris-Foulkes estimate   =    -139.39978178 Ry
     estimated scf accuracy    <       0.48818814 Ry

     iteration #  6     ecut=   100.00 Ry     beta=0.30
     Davidson diagonalization with overlap
     ethr =  1.61E-03,  avg # of iterations =  2.0

     total cpu time spent up to now is      424.7 secs

     total energy              =    -139.24414756 Ry
     Harris-Foulkes estimate   =    -139.26291617 Ry
     estimated scf accuracy    <       0.03101396 Ry

     iteration #  7     ecut=   100.00 Ry     beta=0.30
     Davidson diagonalization with overlap
     ethr =  1.29E-04,  avg # of iterations =  3.0

     total cpu time spent up to now is      443.1 secs

     total energy              =    -139.25323832 Ry
     Harris-Foulkes estimate   =    -139.25901289 Ry
     estimated scf accuracy    <       0.01521129 Ry

     iteration #  8     ecut=   100.00 Ry     beta=0.30
     Davidson diagonalization with overlap
     ethr =  6.34E-05,  avg # of iterations =  2.0

     total cpu time spent up to now is      458.1 secs

     total energy              =    -139.25483364 Ry
     Harris-Foulkes estimate   =    -139.25510131 Ry
     estimated scf accuracy    <       0.00069638 Ry

     iteration #  9     ecut=   100.00 Ry     beta=0.30
     Davidson diagonalization with overlap
     ethr =  2.90E-06,  avg # of iterations =  2.4

     total cpu time spent up to now is      474.3 secs

     total energy              =    -139.25495493 Ry
     Harris-Foulkes estimate   =    -139.25495982 Ry
     estimated scf accuracy    <       0.00002877 Ry

     iteration # 10     ecut=   100.00 Ry     beta=0.30
     Davidson diagonalization with overlap
     ethr =  1.20E-07,  avg # of iterations =  1.9

     total cpu time spent up to now is      487.5 secs

     total energy              =    -139.25495260 Ry
     Harris-Foulkes estimate   =    -139.25495667 Ry
     estimated scf accuracy    <       0.00001195 Ry

     iteration # 11     ecut=   100.00 Ry     beta=0.30
     Davidson diagonalization with overlap
     ethr =  4.98E-08,  avg # of iterations =  3.0

     total cpu time spent up to now is      506.4 secs

     total energy              =    -139.25494909 Ry
     Harris-Foulkes estimate   =    -139.25496222 Ry
     estimated scf accuracy    <       0.00003043 Ry

     iteration # 12     ecut=   100.00 Ry     beta=0.30
     Davidson diagonalization with overlap
     ethr =  4.98E-08,  avg # of iterations =  3.0

     total cpu time spent up to now is      523.9 secs

     End of self-consistent calculation

          k = 0.0963 0.1667 0.0710 (  4615 PWs)   bands (ev):

   -24.9558  -9.1178  -8.5324  -6.0000  -4.8538  -2.6064   3.2757   7.3096
     7.7657   8.7175  10.3601  11.0329

          k = 0.0963 0.1667 0.2130 (  4630 PWs)   bands (ev):

   -24.9478  -9.5218  -8.2542  -5.9959  -4.5353  -2.8054   3.6020   6.7512
     7.7886   8.6252  10.4708  10.9853

          k = 0.0963 0.1667 0.3550 (  4635 PWs)   bands (ev):

   -24.9398  -9.7868  -8.1094  -5.9916  -4.1302  -3.0974   4.0939   5.9617
     7.8561   8.7167  10.5138  10.8372

          k = 0.0963 0.3890 0.0710 (  4639 PWs)   bands (ev):

   -24.6192 -10.2850  -8.4627  -6.4620  -4.4732  -2.9195   4.2900   7.0323
     8.2344   8.7655   9.7414  10.7396

          k = 0.0963 0.3890 0.2130 (  4642 PWs)   bands (ev):

   -24.6136 -10.1489  -8.7720  -6.4630  -4.4966  -2.5552   3.8399   6.4482
     8.3034   9.2693  10.3162  10.8139

          k = 0.0963 0.3890 0.3550 (  4630 PWs)   bands (ev):

   -24.6079 -10.0654  -8.9567  -6.4680  -4.4467  -2.5036   3.8200   6.0776
     8.3414   9.7238  10.4372  10.8235

          k = 0.0963 0.6113 0.0710 (  4648 PWs)   bands (ev):

   -24.3496 -11.2927  -7.7734  -6.5406  -5.5336  -2.3980   5.2818   6.3980
     7.3828   9.1306  10.2759  10.6471

          k = 0.0963 0.6113 0.2130 (  4647 PWs)   bands (ev):

   -24.3460 -11.2098  -7.8653  -6.6097  -5.6578  -2.1983   4.3980   6.5389
     8.3873   8.9055  10.5220  10.8463

          k = 0.0963 0.6113 0.3550 (  4639 PWs)   bands (ev):

   -24.3423 -11.1338  -7.9180  -6.6781  -5.7780  -2.0966   3.9060   6.8769
     8.5771   9.2154  10.5815  10.8931

          k = 0.0963-0.5001 0.0710 (  4642 PWs)   bands (ev):

   -24.4508 -10.9678  -7.9530  -6.6051  -4.9668  -2.8635   5.6115   6.3476
     7.7718   9.0135   9.8330  10.4004

          k = 0.0963-0.5001 0.2130 (  4639 PWs)   bands (ev):

   -24.4464 -10.9060  -8.0539  -6.6482  -5.0272  -2.7866   5.1053   6.3466
     8.7786   8.8292   9.9006  10.4011

          k = 0.0963-0.5001 0.3550 (  4636 PWs)   bands (ev):

   -24.4420 -10.7996  -8.2793  -6.6623  -5.1329  -2.4432   4.2314   6.4899
     8.6023   9.5752  10.1385  10.7387

          k = 0.0963-0.2779 0.0710 (  4618 PWs)   bands (ev):

   -24.8037  -9.5513  -8.6892  -6.2329  -4.2912  -3.1711   3.9847   7.1344
     8.2023   9.0001   9.6061  10.7027

          k = 0.0963-0.2779 0.2130 (  4633 PWs)   bands (ev):

   -24.7967  -9.6132  -8.7754  -6.2313  -3.8953  -3.3911   4.1686   6.4307
     8.1824   9.0921  10.1686  10.5939

          k = 0.0963-0.2779 0.3550 (  4640 PWs)   bands (ev):

   -24.7897  -9.6006  -8.9524  -6.2248  -3.6347  -3.3815   4.1499   5.8702
     8.1822   9.3425  10.3788  10.6673

          k = 0.0963-0.0556 0.0710 (  4636 PWs)   bands (ev):

   -25.0408  -9.2285  -7.8822  -5.8694  -5.3668  -2.2505   2.8972   7.3911
     7.4964   8.4957  10.8541  11.2354

          k = 0.0963-0.0556 0.2130 (  4631 PWs)   bands (ev):

   -25.0322  -9.6511  -7.5033  -5.8655  -5.1393  -2.5175   3.4125   6.9970
     7.5378   8.1500  10.7629  11.1401

          k = 0.0963-0.0556 0.3550 (  4624 PWs)   bands (ev):

   -25.0236  -9.9531  -7.2517  -5.8625  -4.8414  -2.8538   4.2433   6.0452
     7.6396   8.0952  10.7114  10.9377

          k = 0.2888 0.5001 0.0710 (  4667 PWs)   bands (ev):

   -24.3526 -10.7522  -9.1242  -6.5528  -3.9249  -3.1648   5.2522   6.3382
     8.0022   9.0479   9.4913  10.9547

          k = 0.2888 0.5001 0.2130 (  4643 PWs)   bands (ev):

   -24.3488 -10.6707  -9.1513  -6.6400  -4.1619  -3.0463   5.0531   6.2408
     8.5640   9.1601   9.7528  10.7998

          k = 0.2888 0.5001 0.3550 (  4626 PWs)   bands (ev):

   -24.3451 -10.5802  -9.1899  -6.7217  -4.3417  -2.9919   4.9258   6.1770
     8.8173   9.6304   9.8686  10.6584

          k = 0.2888 0.7224 0.0710 (  4661 PWs)   bands (ev):

   -24.2780 -10.7565  -9.5308  -6.3934  -3.9568  -3.0807   5.5809   5.9589
     7.9236   9.0871   9.4900  11.1729

          k = 0.2888 0.7224 0.2130 (  4640 PWs)   bands (ev):

   -24.2748 -10.6921  -9.5035  -6.4588  -4.1829  -3.1418   5.3844   6.2625
     8.4537   9.0379   9.6978  10.8973

          k = 0.2888 0.7224 0.3550 (  4639 PWs)   bands (ev):

   -24.2716 -10.6184  -9.4858  -6.5233  -4.4037  -3.1933   5.2806   6.4397
     8.9973   9.1596   9.8368  10.5395

          k = 0.2888-0.3890 0.0710 (  4648 PWs)   bands (ev):

   -24.4786 -10.6045  -8.6421  -6.6572  -4.1471  -3.0683   4.7917   6.7168
     8.0495   9.1795   9.4744  10.7145

          k = 0.2888-0.3890 0.2130 (  4636 PWs)   bands (ev):

   -24.4739 -10.4969  -8.8014  -6.7155  -4.3071  -2.7748   4.4264   6.2988
     8.4536   9.3333  10.1280  10.6640

          k = 0.2888-0.3890 0.3550 (  4629 PWs)   bands (ev):

   -24.4692 -10.4000  -8.9292  -6.7659  -4.3735  -2.6819   4.2999   6.0751
     8.5697   9.7143  10.3260  10.7321

          k = 0.2888-0.1667 0.0710 (  4638 PWs)   bands (ev):

   -24.7372  -9.8463  -8.6115  -6.2173  -4.5672  -2.8759   3.8986   7.2232
     8.2185   8.7697   9.6422  10.9474

          k = 0.2888-0.1667 0.2130 (  4624 PWs)   bands (ev):

   -24.7307  -9.6811  -8.9809  -6.2106  -4.4762  -2.5738   3.5604   6.5817
     8.1220   9.3554  10.0454  11.0357

          k = 0.2888-0.1667 0.3550 (  4640 PWs)   bands (ev):

   -24.7241  -9.6549  -9.1277  -6.2053  -4.3229  -2.6121   3.6957   6.0631
     8.1744   9.7524  10.2029  10.8778

          k = 0.4813 0.8336 0.0710 (  4659 PWs)   bands (ev):

   -24.3039 -11.1152  -8.7242  -6.4437  -4.7208  -2.6631   5.5558   6.1154
     7.4908   9.2734   9.8639  10.8591

          k = 0.4813 0.8336 0.2130 (  4642 PWs)   bands (ev):

   -24.3005 -11.0435  -8.7241  -6.5150  -4.9268  -2.6167   4.9128   6.5309
     8.2765   9.0431  10.1145  10.7971

          k = 0.4813 0.8336 0.3550 (  4632 PWs)   bands (ev):

   -24.2972 -10.9674  -8.7276  -6.5858  -5.1186  -2.5828   4.5375   6.8347
     8.7973   9.0832  10.3376  10.5856

          k = 0.4813-0.2779 0.0710 (  4633 PWs)   bands (ev):

   -24.4034 -11.2192  -7.4376  -6.5362  -5.8054  -2.3588   4.9866   6.5414
     7.6229   8.8905  10.3574  10.6752

          k = 0.4813-0.2779 0.2130 (  4637 PWs)   bands (ev):

   -24.3994 -11.1256  -7.6983  -6.5279  -5.8491  -2.0453   4.0745   6.4450
     8.6186   8.7106  10.7003  10.9568

          k = 0.4813-0.2779 0.3550 (  4637 PWs)   bands (ev):

   -24.3953 -11.0522  -7.8311  -6.5201  -5.9373  -1.9422   3.6564   6.6835
     8.4796   9.3567  10.6756  11.0560

          k =-0.0963 0.3890-0.0710 (  4639 PWs)   bands (ev):

   -24.6192 -10.3447  -8.3355  -6.4721  -4.3173  -3.2931   4.8310   6.8085
     8.5507   8.7756   9.3621  10.4838

          k =-0.0963 0.3890-0.2130 (  4642 PWs)   bands (ev):

   -24.6135 -10.2953  -8.5001  -6.4824  -4.2250  -3.2685   4.9185   6.1142
     8.5541   9.5097   9.6275  10.3224

          k =-0.0963 0.3890-0.3550 (  4630 PWs)   bands (ev):

   -24.6078 -10.1616  -8.8020  -6.4771  -4.3427  -2.8331   4.3058   5.9697
     8.4615   9.6754  10.2621  10.5989

          k =-0.0963 0.6113-0.0710 (  4648 PWs)   bands (ev):

   -24.3496 -11.3036  -7.7283  -6.5420  -5.5286  -2.5090   5.8173   6.1544
     7.2721   9.1614  10.3012  10.3935

          k =-0.0963 0.6113-0.2130 (  4647 PWs)   bands (ev):

   -24.3459 -11.2337  -7.7646  -6.6216  -5.6601  -2.4071   4.7617   6.7327
     8.2848   8.8913  10.2632  10.6306

          k =-0.0963 0.6113-0.3550 (  4639 PWs)   bands (ev):

   -24.3423 -11.1470  -7.8623  -6.6891  -5.7833  -2.1965   4.0372   7.0208
     8.6202   9.1511  10.3333  10.8712

          k =-0.0963-0.5001-0.0710 (  4642 PWs)   bands (ev):

   -24.4509 -10.9340  -8.0625  -6.5924  -5.0233  -2.5761   4.7822   6.6889
     7.7816   8.9613  10.0545  10.7302

          k =-0.0963-0.5001-0.2130 (  4639 PWs)   bands (ev):

   -24.4465 -10.8300  -8.2805  -6.6176  -5.1061  -2.2433   4.0777   6.3794
     8.4651   9.0089  10.5687  10.8938

          k =-0.0963-0.5001-0.3550 (  4636 PWs)   bands (ev):

   -24.4420 -10.7561  -8.3967  -6.6456  -5.1590  -2.1827   3.8500   6.3847
     8.4997   9.5009  10.6848  10.8655

          k =-0.0963-0.2779-0.0710 (  4618 PWs)   bands (ev):

   -24.8037  -9.4529  -8.8223  -6.2293  -4.3619  -2.9882   3.7722   7.2206
     8.1103   9.0254   9.6255  10.8528

          k =-0.0963-0.2779-0.2130 (  4633 PWs)   bands (ev):

   -24.7967  -9.3489  -9.1025  -6.2249  -4.1573  -2.9056   3.7004   6.5848
     8.0371   9.4067   9.9312  10.8938

          k =-0.0963-0.2779-0.3550 (  4640 PWs)   bands (ev):

   -24.7897  -9.4637  -9.1182  -6.2219  -3.8829  -3.0212   3.8783   5.9777
     8.1019   9.6137  10.1571  10.8028

          k =-0.0963-0.0556-0.0710 (  4636 PWs)   bands (ev):

   -25.0408  -9.2396  -7.8603  -5.8702  -5.3716  -2.2718   2.9292   7.3506
     7.5504   8.4601  10.9578  11.1327

          k =-0.0963-0.0556-0.2130 (  4631 PWs)   bands (ev):

   -25.0322  -9.6625  -7.4710  -5.8671  -5.1456  -2.5600   3.4838   6.9679
     7.6535   7.9991  10.9289  10.9961

          k =-0.0963-0.0556-0.3550 (  4624 PWs)   bands (ev):

   -25.0236  -9.9570  -7.2378  -5.8633  -4.8414  -2.8766   4.2986   6.0175
     7.7020   8.0011  10.8284  10.8413

          k =-0.2888 0.7224-0.0710 (  4661 PWs)   bands (ev):

   -24.2780 -10.7517  -9.5378  -6.3931  -3.9843  -3.0393   5.4561   6.0522
     7.8953   9.2583   9.3483  11.2088

          k =-0.2888 0.7224-0.2130 (  4640 PWs)   bands (ev):

   -24.2748 -10.6817  -9.5190  -6.4579  -4.2208  -3.0785   5.3079   6.2470
     8.4143   9.1948   9.6267  10.9517

          k =-0.2888 0.7224-0.3550 (  4639 PWs)   bands (ev):

   -24.2716 -10.6126  -9.4944  -6.5227  -4.4176  -3.1678   5.2662   6.4023
     8.9455   9.2403   9.8643  10.5382

          k =-0.2888-0.3890-0.0710 (  4648 PWs)   bands (ev):

   -24.4786 -10.6273  -8.5932  -6.6634  -4.0038  -3.3056   5.1032   6.5681
     8.2239   8.9389   9.5519  10.5301

          k =-0.2888-0.3890-0.2130 (  4636 PWs)   bands (ev):

   -24.4739 -10.5506  -8.6943  -6.7307  -4.1371  -3.1317   4.9363   6.1819
     8.6074   9.2732  10.0191  10.2751

          k =-0.2888-0.3890-0.3550 (  4629 PWs)   bands (ev):

   -24.4692 -10.4329  -8.8692  -6.7745  -4.3156  -2.8326   4.5057   6.0658
     8.6144   9.8749  10.0093  10.6456

          k =-0.2888-0.1667-0.0710 (  4638 PWs)   bands (ev):

   -24.7371  -9.9508  -8.4318  -6.2186  -4.4428  -3.2530   4.4115   7.0258
     8.3901   9.0518   9.1774  10.6790

          k =-0.2888-0.1667-0.2130 (  4624 PWs)   bands (ev):

   -24.7306  -9.9564  -8.5698  -6.2133  -4.1523  -3.4062   4.6764   6.2166
     8.4686   8.9800  10.0004  10.4980

          k =-0.2888-0.1667-0.3550 (  4640 PWs)   bands (ev):

   -24.7241  -9.8457  -8.8746  -6.2067  -4.1694  -3.0232   4.2731   5.8723
     8.3448   9.3482  10.4218  10.6132

          k =-0.4813-0.2779-0.0710 (  4633 PWs)   bands (ev):

   -24.4033 -11.2430  -7.3050  -6.5368  -5.8417  -2.5858   5.9527   6.1845
     7.3744   9.0342  10.0237  10.4828

          k =-0.4813-0.2779-0.2130 (  4637 PWs)   bands (ev):

   -24.3993 -11.1779  -7.4409  -6.5290  -5.9296  -2.4888   4.8947   6.6889
     8.4692   8.8332   9.9291  10.6448

          k =-0.4813-0.2779-0.3550 (  4637 PWs)   bands (ev):

   -24.3953 -11.0814  -7.7049  -6.5207  -5.9807  -2.1626   3.9660   6.8854
     8.5666   9.3439  10.2045  10.9203

!    total energy              =    -139.25495337 Ry
     Harris-Foulkes estimate   =    -139.25495364 Ry
     estimated scf accuracy    <       0.00000035 Ry

     The total energy is the sum of the following terms:

     one-electron contribution =     -34.90628293 Ry
     hartree contribution      =      34.37275602 Ry
     xc contribution           =     -26.93459866 Ry
     ewald contribution        =    -111.78682780 Ry

     convergence has been achieved in  12 iterations

     Forces acting on atoms (Ry/au):

     atom    1 type  3   force =     0.00000000   -0.00000000    0.00000000
     atom    2 type  2   force =     0.00000000    0.00000000    0.58535572
     atom    3 type  2   force =    -0.00000000   -0.00000000   -0.58535572
     atom    4 type  1   force =     0.00000000    0.00000000   -0.11336825
     atom    5 type  1   force =    -0.00000000   -0.00000000    0.11336825

     Total force =     0.843201     Total SCF correction =     0.000162


     entering subroutine stress ...

          total   stress  (Ry/bohr**3)                   (kbar)     P= 1892.37
   0.01609589  -0.00000000   0.00000000       2367.79     -0.00      0.00
   0.00000000   0.01609589   0.00000000          0.00   2367.79      0.00
   0.00000000   0.00000000   0.00640048          0.00      0.00    941.54


     number of scf cycles    =   2
     number of bfgs steps    =   1

     enthalpy old            =    -137.6623241599 Ry
     enthalpy new            =    -137.6436679309 Ry

     CASE: enthalpy_new > enthalpy_old

     new trust radius        =       0.2131348700 bohr
     new conv_thr            =       0.0000010000 Ry

     new unit-cell volume =    235.01570 a.u.^3 (    34.82573 Ang^3 )

CELL_PARAMETERS (alat=  6.37640000)
   0.934350623  -0.000000000   0.000000000
  -0.467175312   0.809171376   0.000000000
   0.000000000   0.000000000   1.199001766

ATOMIC_POSITIONS (crystal)
Ca       0.000000000   0.000000000   0.000000000
O        0.333333333   0.666666667   0.216183982
O        0.666666667   0.333333333   0.783816018
H        0.333333333   0.666666667   0.457692035
H        0.666666667   0.333333333   0.542307965



     Writing output data file CaOH2_ambient.save
     NEW-OLD atomic charge density approx. for the potential
     NEW k-points:
        k(    1) = (   0.0891885   0.1544790   0.0695023), wk =   0.0370370
        k(    2) = (   0.0891885   0.1544790   0.2085068), wk =   0.0370370
        k(    3) = (   0.0891885   0.1544790   0.3475113), wk =   0.0370370
        k(    4) = (   0.0891885   0.3604510   0.0695023), wk =   0.0370370
        k(    5) = (   0.0891885   0.3604510   0.2085068), wk =   0.0370370
        k(    6) = (   0.0891885   0.3604510   0.3475113), wk =   0.0370370
        k(    7) = (   0.0891885   0.5664231   0.0695023), wk =   0.0370370
        k(    8) = (   0.0891885   0.5664231   0.2085068), wk =   0.0370370
        k(    9) = (   0.0891885   0.5664231   0.3475113), wk =   0.0370370
        k(   10) = (   0.0891885  -0.4634371   0.0695023), wk =   0.0370370
        k(   11) = (   0.0891885  -0.4634371   0.2085068), wk =   0.0370370
        k(   12) = (   0.0891885  -0.4634371   0.3475113), wk =   0.0370370
        k(   13) = (   0.0891885  -0.2574650   0.0695023), wk =   0.0370370
        k(   14) = (   0.0891885  -0.2574650   0.2085068), wk =   0.0370370
        k(   15) = (   0.0891885  -0.2574650   0.3475113), wk =   0.0370370
        k(   16) = (   0.0891885  -0.0514930   0.0695023), wk =   0.0185185
        k(   17) = (   0.0891885  -0.0514930   0.2085068), wk =   0.0185185
        k(   18) = (   0.0891885  -0.0514930   0.3475113), wk =   0.0185185
        k(   19) = (   0.2675655   0.4634371   0.0695023), wk =   0.0370370
        k(   20) = (   0.2675655   0.4634371   0.2085068), wk =   0.0370370
        k(   21) = (   0.2675655   0.4634371   0.3475113), wk =   0.0370370
        k(   22) = (   0.2675655   0.6694091   0.0695023), wk =   0.0370370
        k(   23) = (   0.2675655   0.6694091   0.2085068), wk =   0.0370370
        k(   24) = (   0.2675655   0.6694091   0.3475113), wk =   0.0370370
        k(   25) = (   0.2675655  -0.3604510   0.0695023), wk =   0.0370370
        k(   26) = (   0.2675655  -0.3604510   0.2085068), wk =   0.0370370
        k(   27) = (   0.2675655  -0.3604510   0.3475113), wk =   0.0370370
        k(   28) = (   0.2675655  -0.1544790   0.0695023), wk =   0.0185185
        k(   29) = (   0.2675655  -0.1544790   0.2085068), wk =   0.0185185
        k(   30) = (   0.2675655  -0.1544790   0.3475113), wk =   0.0185185
        k(   31) = (   0.4459425   0.7723951   0.0695023), wk =   0.0370370
        k(   32) = (   0.4459425   0.7723951   0.2085068), wk =   0.0370370
        k(   33) = (   0.4459425   0.7723951   0.3475113), wk =   0.0370370
        k(   34) = (   0.4459425  -0.2574650   0.0695023), wk =   0.0185185
        k(   35) = (   0.4459425  -0.2574650   0.2085068), wk =   0.0185185
        k(   36) = (   0.4459425  -0.2574650   0.3475113), wk =   0.0185185
        k(   37) = (  -0.0891885   0.3604510  -0.0695023), wk =   0.0370370
        k(   38) = (  -0.0891885   0.3604510  -0.2085068), wk =   0.0370370
        k(   39) = (  -0.0891885   0.3604510  -0.3475113), wk =   0.0370370
        k(   40) = (  -0.0891885   0.5664231  -0.0695023), wk =   0.0370370
        k(   41) = (  -0.0891885   0.5664231  -0.2085068), wk =   0.0370370
        k(   42) = (  -0.0891885   0.5664231  -0.3475113), wk =   0.0370370
        k(   43) = (  -0.0891885  -0.4634371  -0.0695023), wk =   0.0370370
        k(   44) = (  -0.0891885  -0.4634371  -0.2085068), wk =   0.0370370
        k(   45) = (  -0.0891885  -0.4634371  -0.3475113), wk =   0.0370370
        k(   46) = (  -0.0891885  -0.2574650  -0.0695023), wk =   0.0370370
        k(   47) = (  -0.0891885  -0.2574650  -0.2085068), wk =   0.0370370
        k(   48) = (  -0.0891885  -0.2574650  -0.3475113), wk =   0.0370370
        k(   49) = (  -0.0891885  -0.0514930  -0.0695023), wk =   0.0185185
        k(   50) = (  -0.0891885  -0.0514930  -0.2085068), wk =   0.0185185
        k(   51) = (  -0.0891885  -0.0514930  -0.3475113), wk =   0.0185185
        k(   52) = (  -0.2675655   0.6694091  -0.0695023), wk =   0.0370370
        k(   53) = (  -0.2675655   0.6694091  -0.2085068), wk =   0.0370370
        k(   54) = (  -0.2675655   0.6694091  -0.3475113), wk =   0.0370370
        k(   55) = (  -0.2675655  -0.3604510  -0.0695023), wk =   0.0370370
        k(   56) = (  -0.2675655  -0.3604510  -0.2085068), wk =   0.0370370
        k(   57) = (  -0.2675655  -0.3604510  -0.3475113), wk =   0.0370370
        k(   58) = (  -0.2675655  -0.1544790  -0.0695023), wk =   0.0185185
        k(   59) = (  -0.2675655  -0.1544790  -0.2085068), wk =   0.0185185
        k(   60) = (  -0.2675655  -0.1544790  -0.3475113), wk =   0.0185185
        k(   61) = (  -0.4459425  -0.2574650  -0.0695023), wk =   0.0185185
        k(   62) = (  -0.4459425  -0.2574650  -0.2085068), wk =   0.0185185
        k(   63) = (  -0.4459425  -0.2574650  -0.3475113), wk =   0.0185185
     extrapolated charge   27.50967, renormalised to   24.00000

     total cpu time spent up to now is      619.7 secs

     per-process dynamical memory:    21.4 Mb

     Self-consistent Calculation

     iteration #  1     ecut=   100.00 Ry     beta=0.30
     Davidson diagonalization with overlap
     ethr =  1.00E-06,  avg # of iterations =  7.5

     total cpu time spent up to now is      660.1 secs

     total energy              =    -138.19379637 Ry
     Harris-Foulkes estimate   =    -135.25150431 Ry
     estimated scf accuracy    <       2.37117667 Ry

     iteration #  2     ecut=   100.00 Ry     beta=0.30
     Davidson diagonalization with overlap
     ethr =  9.88E-03,  avg # of iterations =  3.0

     total cpu time spent up to now is      681.6 secs

     total energy              =    -139.84046190 Ry
     Harris-Foulkes estimate   =    -139.91411336 Ry
     estimated scf accuracy    <       0.43971964 Ry

     iteration #  3     ecut=   100.00 Ry     beta=0.30
     Davidson diagonalization with overlap
     ethr =  1.83E-03,  avg # of iterations =  1.0

     total cpu time spent up to now is      694.0 secs

     total energy              =    -139.70896527 Ry
     Harris-Foulkes estimate   =    -139.84731313 Ry
     estimated scf accuracy    <       0.24752339 Ry

     iteration #  4     ecut=   100.00 Ry     beta=0.30
     Davidson diagonalization with overlap
     ethr =  1.03E-03,  avg # of iterations =  2.0

     total cpu time spent up to now is      710.7 secs

     total energy              =    -139.77231740 Ry
     Harris-Foulkes estimate   =    -139.77795862 Ry
     estimated scf accuracy    <       0.01517165 Ry

     iteration #  5     ecut=   100.00 Ry     beta=0.30
     Davidson diagonalization with overlap
     ethr =  6.32E-05,  avg # of iterations =  2.0

     total cpu time spent up to now is      725.8 secs

     total energy              =    -139.77373223 Ry
     Harris-Foulkes estimate   =    -139.77451035 Ry
     estimated scf accuracy    <       0.00220961 Ry

     iteration #  6     ecut=   100.00 Ry     beta=0.30
     Davidson diagonalization with overlap
     ethr =  9.21E-06,  avg # of iterations =  2.0

     total cpu time spent up to now is      741.2 secs

     total energy              =    -139.77404551 Ry
     Harris-Foulkes estimate   =    -139.77403612 Ry
     estimated scf accuracy    <       0.00006834 Ry

     iteration #  7     ecut=   100.00 Ry     beta=0.30
     Davidson diagonalization with overlap
     ethr =  2.85E-07,  avg # of iterations =  3.0

     total cpu time spent up to now is      759.7 secs

     total energy              =    -139.77399264 Ry
     Harris-Foulkes estimate   =    -139.77409027 Ry
     estimated scf accuracy    <       0.00023540 Ry

     iteration #  8     ecut=   100.00 Ry     beta=0.30
     Davidson diagonalization with overlap
     ethr =  2.85E-07,  avg # of iterations =  3.0

     total cpu time spent up to now is      778.4 secs

     total energy              =    -139.77403012 Ry
     Harris-Foulkes estimate   =    -139.77403035 Ry
     estimated scf accuracy    <       0.00000204 Ry

     iteration #  9     ecut=   100.00 Ry     beta=0.30
     Davidson diagonalization with overlap
     ethr =  8.50E-09,  avg # of iterations =  1.9

     total cpu time spent up to now is      791.6 secs

     total energy              =    -139.77402972 Ry
     Harris-Foulkes estimate   =    -139.77403023 Ry
     estimated scf accuracy    <       0.00000122 Ry

     iteration # 10     ecut=   100.00 Ry     beta=0.30
     Davidson diagonalization with overlap
     ethr =  5.09E-09,  avg # of iterations =  2.7

     total cpu time spent up to now is      808.6 secs

     End of self-consistent calculation

          k = 0.0892 0.1545 0.0695 (  4615 PWs)   bands (ev):

   -27.7027 -11.2109 -10.8588  -8.9965  -8.3394  -6.8868   1.4102   4.5463
     5.8641   6.1180   7.5478   8.0975

          k = 0.0892 0.1545 0.2085 (  4630 PWs)   bands (ev):

   -27.6988 -11.5371 -10.5850  -8.9932  -8.1529  -7.0401   1.6942   3.8912
     5.9082   6.3372   7.5651   8.0152

          k = 0.0892 0.1545 0.3475 (  4635 PWs)   bands (ev):

   -27.6949 -11.7319 -10.4427  -8.9899  -7.8903  -7.2699   2.2418   3.0333
     6.0362   6.4873   7.5866   7.8474

          k = 0.0892 0.3605 0.0695 (  4639 PWs)   bands (ev):

   -27.5718 -11.9138 -10.6864  -9.2266  -8.0386  -7.0639   2.1528   3.9889
     6.0224   6.2934   6.9156   7.8598

          k = 0.0892 0.3605 0.2085 (  4642 PWs)   bands (ev):

   -27.5689 -11.7573 -10.9547  -9.2227  -8.0884  -6.8661   1.9590   3.5252
     6.1453   6.5167   7.3188   7.8894

          k = 0.0892 0.3605 0.3475 (  4630 PWs)   bands (ev):

   -27.5659 -11.6487 -11.1180  -9.2217  -8.0697  -6.8502   2.0142   3.1177
     6.2101   6.8933   7.4193   7.7860

          k = 0.0892 0.5664 0.0695 (  4648 PWs)   bands (ev):

   -27.4726 -12.4690 -10.1254  -9.3633  -8.6658  -6.7310   2.8661   3.5746
     5.1819   6.6918   7.1389   7.6428

          k = 0.0892 0.5664 0.2085 (  4647 PWs)   bands (ev):

   -27.4705 -12.3767 -10.2293  -9.3950  -8.7585  -6.6168   2.3144   3.5622
     5.8489   6.4575   7.3772   7.7649

          k = 0.0892 0.5664 0.3475 (  4639 PWs)   bands (ev):

   -27.4683 -12.2921 -10.2915  -9.4351  -8.8417  -6.5618   1.9879   3.5633
     6.3248   6.4738   7.4092   7.7652

          k = 0.0892-0.4634 0.0695 (  4642 PWs)   bands (ev):

   -27.5093 -12.3110 -10.2799  -9.3328  -8.3161  -7.0165   2.9388   3.5726
     5.5047   6.6362   6.9872   7.4597

          k = 0.0892-0.4634 0.2085 (  4639 PWs)   bands (ev):

   -27.5068 -12.2468 -10.3606  -9.3488  -8.3709  -6.9722   2.8028   3.2409
     6.1915   6.5584   7.1527   7.3200

          k = 0.0892-0.4634 0.3475 (  4636 PWs)   bands (ev):

   -27.5044 -12.1242 -10.5670  -9.3479  -8.4671  -6.7739   2.2198   3.2851
     6.4039   6.8247   7.1078   7.6295

          k = 0.0892-0.2575 0.0695 (  4618 PWs)   bands (ev):

   -27.6426 -11.5427 -10.8192  -9.1067  -7.9413  -7.2212   1.8567   4.2500
     6.1152   6.3729   6.9270   7.8451

          k = 0.0892-0.2575 0.2085 (  4633 PWs)   bands (ev):

   -27.6391 -11.5886 -10.8527  -9.1036  -7.7086  -7.3824   2.0511   3.5949
     6.1427   6.6452   7.2368   7.6733

          k = 0.0892-0.2575 0.3475 (  4640 PWs)   bands (ev):

   -27.6356 -11.5762 -10.9613  -9.0986  -7.5633  -7.4136   2.3209   2.8832
     6.2213   6.7942   7.4363   7.6691

          k = 0.0892-0.0515 0.0695 (  4636 PWs)   bands (ev):

   -27.7370 -11.2375 -10.5561  -8.9372  -8.6668  -6.6917   1.1731   4.7665
     5.7173   5.8972   7.9428   8.2486

          k = 0.0892-0.0515 0.2085 (  4631 PWs)   bands (ev):

   -27.7328 -11.6159 -10.1599  -8.9343  -8.5389  -6.8803   1.5479   4.1064
     5.7772   6.0665   7.8116   8.1459

          k = 0.0892-0.0515 0.3475 (  4624 PWs)   bands (ev):

   -27.7286 -11.8524  -9.9116  -8.9318  -8.3444  -7.1328   2.2465   3.1747
     5.9182   6.1829   7.7341   7.9232

          k = 0.2676 0.4634 0.0695 (  4667 PWs)   bands (ev):

   -27.4731 -12.1243 -10.9911  -9.3697  -7.6709  -7.1875   2.8958   3.5050
     5.6049   6.4306   6.6354   7.9897

          k = 0.2676 0.4634 0.2085 (  4643 PWs)   bands (ev):

   -27.4709 -12.0358 -11.0319  -9.4131  -7.8312  -7.1063   2.7263   3.3100
     6.0765   6.4457   6.9426   7.7537

          k = 0.2676 0.4634 0.3475 (  4626 PWs)   bands (ev):

   -27.4688 -11.9312 -11.0915  -9.4522  -7.9568  -7.0619   2.5731   3.1754
     6.4138   6.7351   7.0928   7.4604

          k = 0.2676 0.6694 0.0695 (  4661 PWs)   bands (ev):

   -27.4463 -12.0864 -11.2392  -9.3158  -7.6621  -7.1310   3.1475   3.2843
     5.4774   6.4176   6.5979   8.1185

          k = 0.2676 0.6694 0.2085 (  4640 PWs)   bands (ev):

   -27.4443 -12.0203 -11.2204  -9.3565  -7.7989  -7.1545   2.9165   3.3042
     5.8994   6.4894   6.8133   7.8165

          k = 0.2676 0.6694 0.3475 (  4639 PWs)   bands (ev):

   -27.4423 -11.9412 -11.2152  -9.3962  -7.9382  -7.1713   2.7362   3.2932
     6.4278   6.6260   6.9710   7.3802

          k = 0.2676-0.3605 0.0695 (  4648 PWs)   bands (ev):

   -27.5192 -12.0768 -10.7409  -9.3702  -7.8308  -7.1434   2.5319   3.7571
     5.7928   6.4421   6.7474   7.8534

          k = 0.2676-0.3605 0.2085 (  4636 PWs)   bands (ev):

   -27.5167 -11.9550 -10.8997  -9.3895  -7.9595  -6.9683   2.3252   3.4067
     6.1924   6.4330   7.2223   7.7200

          k = 0.2676-0.3605 0.3475 (  4629 PWs)   bands (ev):

   -27.5141 -11.8365 -11.0349  -9.4067  -8.0182  -6.9130   2.2539   3.1284
     6.3154   6.8045   7.4007   7.5599

          k = 0.2676-0.1545 0.0695 (  4638 PWs)   bands (ev):

   -27.6168 -11.6687 -10.8043  -9.0987  -8.1028  -7.0424   1.8687   4.1679
     6.1182   6.2744   6.9224   7.9877

          k = 0.2676-0.1545 0.2085 (  4624 PWs)   bands (ev):

   -27.6136 -11.4854 -11.1139  -9.0942  -8.0791  -6.8954   1.7792   3.6231
     6.0408   6.6932   7.1901   8.0559

          k = 0.2676-0.1545 0.3475 (  4640 PWs)   bands (ev):

   -27.6103 -11.4566 -11.2054  -9.0905  -7.9888  -6.9427   1.9799   3.0861
     6.1323   6.9985   7.3085   7.8780

          k = 0.4459 0.7724 0.0695 (  4659 PWs)   bands (ev):

   -27.4559 -12.3351 -10.7128  -9.3399  -8.1381  -6.8863   3.0789   3.3868
     5.2750   6.5681   6.8497   7.8990

          k = 0.4459 0.7724 0.2085 (  4642 PWs)   bands (ev):

   -27.4538 -12.2587 -10.7246  -9.3841  -8.2727  -6.8512   2.6339   3.4765
     5.8359   6.4879   7.0755   7.7606

          k = 0.4459 0.7724 0.3475 (  4632 PWs)   bands (ev):

   -27.4518 -12.1754 -10.7425  -9.4284  -8.3993  -6.8238   2.3374   3.4983
     6.4369   6.4478   7.2483   7.5047

          k = 0.4459-0.2575 0.0695 (  4633 PWs)   bands (ev):

   -27.4922 -12.4385  -9.9926  -9.2537  -8.8767  -6.7097   2.6541   3.6989
     5.2780   6.6444   7.2886   7.5699

          k = 0.4459-0.2575 0.2085 (  4637 PWs)   bands (ev):

   -27.4899 -12.3311 -10.2112  -9.2481  -8.9221  -6.5402   2.1102   3.5613
     5.9514   6.3762   7.5283   7.8347

          k = 0.4459-0.2575 0.3475 (  4637 PWs)   bands (ev):

   -27.4876 -12.2486 -10.3172  -9.2429  -8.9902  -6.4905   1.8503   3.4983
     6.2739   6.5356   7.4874   7.8963

          k =-0.0892 0.3605-0.0695 (  4639 PWs)   bands (ev):

   -27.5718 -11.9782 -10.5677  -9.2320  -7.9025  -7.3070   2.4094   3.9217
     6.1044   6.4197   6.7225   7.6151

          k =-0.0892 0.3605-0.2085 (  4642 PWs)   bands (ev):

   -27.5689 -11.9285 -10.6807  -9.2327  -7.8627  -7.3022   2.5486   3.2906
     6.3794   6.7329   6.9891   7.3461

          k =-0.0892 0.3605-0.3475 (  4630 PWs)   bands (ev):

   -27.5659 -11.7818 -10.9359  -9.2264  -7.9865  -7.0371   2.3539   2.9460
     6.3640   6.9619   7.2266   7.5607

          k =-0.0892 0.5664-0.0695 (  4648 PWs)   bands (ev):

   -27.4726 -12.4831 -10.0764  -9.3708  -8.6570  -6.7939   3.2016   3.3499
     5.1597   6.7493   7.1292   7.4873

          k =-0.0892 0.5664-0.2085 (  4647 PWs)   bands (ev):

   -27.4705 -12.4088 -10.1192  -9.4173  -8.7517  -6.7321   2.5643   3.5164
     5.8463   6.5588   7.2296   7.5718

          k =-0.0892 0.5664-0.3475 (  4639 PWs)   bands (ev):

   -27.4683 -12.3108 -10.2303  -9.4501  -8.8421  -6.6153   2.0752   3.5704
     6.3736   6.5219   7.2443   7.7204

          k =-0.0892-0.4634-0.0695 (  4642 PWs)   bands (ev):

   -27.5093 -12.2697 -10.3866  -9.3224  -8.3714  -6.8445   2.5222   3.7598
     5.5073   6.5154   7.0803   7.7575

          k =-0.0892-0.4634-0.2085 (  4639 PWs)   bands (ev):

   -27.5068 -12.1488 -10.5891  -9.3264  -8.4493  -6.6621   2.1114   3.5099
     6.0848   6.3412   7.4492   7.8521

          k =-0.0892-0.4634-0.3475 (  4636 PWs)   bands (ev):

   -27.5044 -12.0637 -10.6921  -9.3363  -8.4939  -6.6322   1.9687   3.3393
     6.2750   6.6429   7.5107   7.7731

          k =-0.0892-0.2575-0.0695 (  4618 PWs)   bands (ev):

   -27.6426 -11.4659 -10.9227  -9.1051  -7.9992  -7.1104   1.7630   4.2614
     6.0425   6.4060   6.9284   7.9851

          k =-0.0892-0.2575-0.2085 (  4633 PWs)   bands (ev):

   -27.6391 -11.4100 -11.0809  -9.1007  -7.8991  -7.0893   1.8294   3.6579
     6.0083   6.8000   7.1133   7.9608

          k =-0.0892-0.2575-0.3475 (  4640 PWs)   bands (ev):

   -27.6356 -11.4871 -11.0736  -9.0972  -7.7370  -7.1898   2.1242   3.0037
     6.1200   6.9640   7.3049   7.8142

          k =-0.0892-0.0515-0.0695 (  4636 PWs)   bands (ev):

   -27.7370 -11.2518 -10.5347  -8.9375  -8.6682  -6.7016   1.1852   4.7673
     5.7816   5.8282   8.0354   8.1438

          k =-0.0892-0.0515-0.2085 (  4631 PWs)   bands (ev):

   -27.7328 -11.6270 -10.1345  -8.9350  -8.5394  -6.9023   1.5761   4.1054
     5.9007   5.9236   7.9199   8.0277

          k =-0.0892-0.0515-0.3475 (  4624 PWs)   bands (ev):

   -27.7286 -11.8562  -9.9009  -8.9322  -8.3418  -7.1463   2.2740   3.1603
     6.0038   6.0812   7.7984   7.8628

          k =-0.2676 0.6694-0.0695 (  4661 PWs)   bands (ev):

   -27.4463 -12.0804 -11.2475  -9.3155  -7.6805  -7.1063   3.0513   3.3644
     5.4725   6.4814   6.5412   8.1362

          k =-0.2676 0.6694-0.2085 (  4640 PWs)   bands (ev):

   -27.4443 -12.0066 -11.2395  -9.3555  -7.8254  -7.1154   2.8452   3.3409
     5.8908   6.5032   6.8193   7.8462

          k =-0.2676 0.6694-0.3475 (  4639 PWs)   bands (ev):

   -27.4423 -11.9331 -11.2264  -9.3955  -7.9483  -7.1550   2.7155   3.2969
     6.4230   6.5851   7.0546   7.3620

          k =-0.2676-0.3605-0.0695 (  4648 PWs)   bands (ev):

   -27.5192 -12.1031 -10.6915  -9.3749  -7.7275  -7.2920   2.6924   3.6901
     5.8372   6.4075   6.7406   7.7370

          k =-0.2676-0.3605-0.2085 (  4636 PWs)   bands (ev):

   -27.5167 -12.0215 -10.7859  -9.4001  -7.8390  -7.1790   2.6524   3.2576
     6.3331   6.4356   7.1169   7.4683

          k =-0.2676-0.3605-0.3475 (  4629 PWs)   bands (ev):

   -27.5141 -11.8837 -10.9638  -9.4124  -7.9770  -6.9990   2.4074   3.0590
     6.3737   6.9794   7.0960   7.5313

          k =-0.2676-0.1545-0.0695 (  4638 PWs)   bands (ev):

   -27.6168 -11.7703 -10.6436  -9.0994  -7.9838  -7.2832   2.1012   4.1297
     6.2749   6.3214   6.7614   7.7071

          k =-0.2676-0.1545-0.2085 (  4624 PWs)   bands (ev):

   -27.6135 -11.7736 -10.7160  -9.0956  -7.7812  -7.4297   2.3284   3.4426
     6.4636   6.4866   7.1397   7.4572

          k =-0.2676-0.1545-0.3475 (  4640 PWs)   bands (ev):

   -27.6103 -11.6685 -10.9420  -9.0912  -7.8599  -7.1873   2.3932   2.8487
     6.3542   6.7680   7.4185   7.5805

          k =-0.4459-0.2575-0.0695 (  4633 PWs)   bands (ev):

   -27.4922 -12.4686  -9.8740  -9.2540  -8.8911  -6.8406   3.1610   3.4231
     5.2356   6.9298   7.0982   7.2473

          k =-0.4459-0.2575-0.2085 (  4637 PWs)   bands (ev):

   -27.4899 -12.4004  -9.9696  -9.2488  -8.9648  -6.7839   2.6588   3.4262
     5.9661   6.6765   7.0961   7.4604

          k =-0.4459-0.2575-0.3475 (  4637 PWs)   bands (ev):

   -27.4876 -12.2896 -10.1927  -9.2432  -9.0168  -6.6049   2.0463   3.4929
     6.3819   6.6481   7.1825   7.7514

!    total energy              =    -139.77403003 Ry
     Harris-Foulkes estimate   =    -139.77403012 Ry
     estimated scf accuracy    <       0.00000013 Ry

     The total energy is the sum of the following terms:

     one-electron contribution =     -40.21956376 Ry
     hartree contribution      =      34.39652038 Ry
     xc contribution           =     -26.65141246 Ry
     ewald contribution        =    -107.29957419 Ry

     convergence has been achieved in  10 iterations

     Forces acting on atoms (Ry/au):

     atom    1 type  3   force =    -0.00000000   -0.00000000    0.00000000
     atom    2 type  2   force =     0.00000000    0.00000000    0.22219476
     atom    3 type  2   force =     0.00000000   -0.00000000   -0.22219476
     atom    4 type  1   force =     0.00000000    0.00000000    0.01540007
     atom    5 type  1   force =    -0.00000000   -0.00000000   -0.01540007

     Total force =     0.314985     Total SCF correction =     0.000347


     entering subroutine stress ...

          total   stress  (Ry/bohr**3)                   (kbar)     P=  938.18
   0.00713778  -0.00000000  -0.00000000       1050.00     -0.00     -0.00
  -0.00000000   0.00713778  -0.00000000         -0.00   1050.00     -0.00
  -0.00000000  -0.00000000   0.00485739         -0.00     -0.00    714.55


     number of scf cycles    =   3
     number of bfgs steps    =   1

     enthalpy old            =    -137.6623241599 Ry
     enthalpy new            =    -137.8569046096 Ry

     CASE: enthalpy_new < enthalpy_old

     new trust radius        =       0.2489575949 bohr
     new conv_thr            =       0.0000010000 Ry

     new unit-cell volume =    193.67932 a.u.^3 (    28.70031 Ang^3 )

CELL_PARAMETERS (alat=  6.37640000)
   0.884895891  -0.000000000   0.000000000
  -0.442447945   0.766342321   0.000000000
   0.000000000  -0.000000000   1.101644858

ATOMIC_POSITIONS (crystal)
Ca      -0.000000000  -0.000000000   0.000000000
O        0.333333333   0.666666667   0.237238986
O        0.666666667   0.333333333   0.762761014
H        0.333333333   0.666666667   0.469083693
H        0.666666667   0.333333333   0.530916307



     Writing output data file CaOH2_ambient.save
     NEW-OLD atomic charge density approx. for the potential
     NEW k-points:
        k(    1) = (   0.0941730   0.1631125   0.0756445), wk =   0.0370370
        k(    2) = (   0.0941730   0.1631125   0.2269334), wk =   0.0370370
        k(    3) = (   0.0941730   0.1631125   0.3782223), wk =   0.0370370
        k(    4) = (   0.0941730   0.3805958   0.0756445), wk =   0.0370370
        k(    5) = (   0.0941730   0.3805958   0.2269334), wk =   0.0370370
        k(    6) = (   0.0941730   0.3805958   0.3782223), wk =   0.0370370
        k(    7) = (   0.0941730   0.5980791   0.0756445), wk =   0.0370370
        k(    8) = (   0.0941730   0.5980791   0.2269334), wk =   0.0370370
        k(    9) = (   0.0941730   0.5980791   0.3782223), wk =   0.0370370
        k(   10) = (   0.0941730  -0.4893375   0.0756445), wk =   0.0370370
        k(   11) = (   0.0941730  -0.4893375   0.2269334), wk =   0.0370370
        k(   12) = (   0.0941730  -0.4893375   0.3782223), wk =   0.0370370
        k(   13) = (   0.0941730  -0.2718541   0.0756445), wk =   0.0370370
        k(   14) = (   0.0941730  -0.2718541   0.2269334), wk =   0.0370370
        k(   15) = (   0.0941730  -0.2718541   0.3782223), wk =   0.0370370
        k(   16) = (   0.0941730  -0.0543708   0.0756445), wk =   0.0185185
        k(   17) = (   0.0941730  -0.0543708   0.2269334), wk =   0.0185185
        k(   18) = (   0.0941730  -0.0543708   0.3782223), wk =   0.0185185
        k(   19) = (   0.2825191   0.4893375   0.0756445), wk =   0.0370370
        k(   20) = (   0.2825191   0.4893375   0.2269334), wk =   0.0370370
        k(   21) = (   0.2825191   0.4893375   0.3782223), wk =   0.0370370
        k(   22) = (   0.2825191   0.7068208   0.0756445), wk =   0.0370370
        k(   23) = (   0.2825191   0.7068208   0.2269334), wk =   0.0370370
        k(   24) = (   0.2825191   0.7068208   0.3782223), wk =   0.0370370
        k(   25) = (   0.2825191  -0.3805958   0.0756445), wk =   0.0370370
        k(   26) = (   0.2825191  -0.3805958   0.2269334), wk =   0.0370370
        k(   27) = (   0.2825191  -0.3805958   0.3782223), wk =   0.0370370
        k(   28) = (   0.2825191  -0.1631125   0.0756445), wk =   0.0185185
        k(   29) = (   0.2825191  -0.1631125   0.2269334), wk =   0.0185185
        k(   30) = (   0.2825191  -0.1631125   0.3782223), wk =   0.0185185
        k(   31) = (   0.4708652   0.8155624   0.0756445), wk =   0.0370370
        k(   32) = (   0.4708652   0.8155624   0.2269334), wk =   0.0370370
        k(   33) = (   0.4708652   0.8155624   0.3782223), wk =   0.0370370
        k(   34) = (   0.4708652  -0.2718541   0.0756445), wk =   0.0185185
        k(   35) = (   0.4708652  -0.2718541   0.2269334), wk =   0.0185185
        k(   36) = (   0.4708652  -0.2718541   0.3782223), wk =   0.0185185
        k(   37) = (  -0.0941730   0.3805958  -0.0756445), wk =   0.0370370
        k(   38) = (  -0.0941730   0.3805958  -0.2269334), wk =   0.0370370
        k(   39) = (  -0.0941730   0.3805958  -0.3782223), wk =   0.0370370
        k(   40) = (  -0.0941730   0.5980791  -0.0756445), wk =   0.0370370
        k(   41) = (  -0.0941730   0.5980791  -0.2269334), wk =   0.0370370
        k(   42) = (  -0.0941730   0.5980791  -0.3782223), wk =   0.0370370
        k(   43) = (  -0.0941730  -0.4893375  -0.0756445), wk =   0.0370370
        k(   44) = (  -0.0941730  -0.4893375  -0.2269334), wk =   0.0370370
        k(   45) = (  -0.0941730  -0.4893375  -0.3782223), wk =   0.0370370
        k(   46) = (  -0.0941730  -0.2718541  -0.0756445), wk =   0.0370370
        k(   47) = (  -0.0941730  -0.2718541  -0.2269334), wk =   0.0370370
        k(   48) = (  -0.0941730  -0.2718541  -0.3782223), wk =   0.0370370
        k(   49) = (  -0.0941730  -0.0543708  -0.0756445), wk =   0.0185185
        k(   50) = (  -0.0941730  -0.0543708  -0.2269334), wk =   0.0185185
        k(   51) = (  -0.0941730  -0.0543708  -0.3782223), wk =   0.0185185
        k(   52) = (  -0.2825191   0.7068208  -0.0756445), wk =   0.0370370
        k(   53) = (  -0.2825191   0.7068208  -0.2269334), wk =   0.0370370
        k(   54) = (  -0.2825191   0.7068208  -0.3782223), wk =   0.0370370
        k(   55) = (  -0.2825191  -0.3805958  -0.0756445), wk =   0.0370370
        k(   56) = (  -0.2825191  -0.3805958  -0.2269334), wk =   0.0370370
        k(   57) = (  -0.2825191  -0.3805958  -0.3782223), wk =   0.0370370
        k(   58) = (  -0.2825191  -0.1631125  -0.0756445), wk =   0.0185185
        k(   59) = (  -0.2825191  -0.1631125  -0.2269334), wk =   0.0185185
        k(   60) = (  -0.2825191  -0.1631125  -0.3782223), wk =   0.0185185
        k(   61) = (  -0.4708652  -0.2718541  -0.0756445), wk =   0.0185185
        k(   62) = (  -0.4708652  -0.2718541  -0.2269334), wk =   0.0185185
        k(   63) = (  -0.4708652  -0.2718541  -0.3782223), wk =   0.0185185
     extrapolated charge   19.30461, renormalised to   24.00000

     total cpu time spent up to now is      904.5 secs

     per-process dynamical memory:    21.4 Mb

     Self-consistent Calculation

     iteration #  1     ecut=   100.00 Ry     beta=0.30
     Davidson diagonalization with overlap
     ethr =  1.00E-06,  avg # of iterations =  7.0

     total cpu time spent up to now is      944.4 secs

     total energy              =    -138.24853565 Ry
     Harris-Foulkes estimate   =    -144.20166960 Ry
     estimated scf accuracy    <       2.02829782 Ry

     iteration #  2     ecut=   100.00 Ry     beta=0.30
     Davidson diagonalization with overlap
     ethr =  8.45E-03,  avg # of iterations =  2.0

     total cpu time spent up to now is      962.3 secs

     total energy              =    -139.47682251 Ry
     Harris-Foulkes estimate   =    -139.49261885 Ry
     estimated scf accuracy    <       0.08960303 Ry

     iteration #  3     ecut=   100.00 Ry     beta=0.30
     Davidson diagonalization with overlap
     ethr =  3.73E-04,  avg # of iterations =  1.7

     total cpu time spent up to now is      975.2 secs

     total energy              =    -139.44970077 Ry
     Harris-Foulkes estimate   =    -139.48096164 Ry
     estimated scf accuracy    <       0.05132177 Ry

     iteration #  4     ecut=   100.00 Ry     beta=0.30
     Davidson diagonalization with overlap
     ethr =  2.14E-04,  avg # of iterations =  2.0

     total cpu time spent up to now is      992.4 secs

     total energy              =    -139.46360772 Ry
     Harris-Foulkes estimate   =    -139.46726681 Ry
     estimated scf accuracy    <       0.01061885 Ry

     iteration #  5     ecut=   100.00 Ry     beta=0.30
     Davidson diagonalization with overlap
     ethr =  4.42E-05,  avg # of iterations =  2.0

     total cpu time spent up to now is     1007.7 secs

     total energy              =    -139.46373676 Ry
     Harris-Foulkes estimate   =    -139.46463323 Ry
     estimated scf accuracy    <       0.00159918 Ry

     iteration #  6     ecut=   100.00 Ry     beta=0.30
     Davidson diagonalization with overlap
     ethr =  6.66E-06,  avg # of iterations =  2.0

     total cpu time spent up to now is     1025.1 secs

     total energy              =    -139.46406432 Ry
     Harris-Foulkes estimate   =    -139.46419279 Ry
     estimated scf accuracy    <       0.00032970 Ry

     iteration #  7     ecut=   100.00 Ry     beta=0.30
     Davidson diagonalization with overlap
     ethr =  1.37E-06,  avg # of iterations =  2.0

     total cpu time spent up to now is     1040.2 secs

     total energy              =    -139.46407303 Ry
     Harris-Foulkes estimate   =    -139.46409511 Ry
     estimated scf accuracy    <       0.00003570 Ry

     iteration #  8     ecut=   100.00 Ry     beta=0.30
     Davidson diagonalization with overlap
     ethr =  1.49E-07,  avg # of iterations =  2.3

     total cpu time spent up to now is     1057.2 secs

[...]
        k(   60) = (  -0.2388244  -0.1378854  -0.5606020), wk =   0.0185185
        k(   61) = (  -0.3980407  -0.2298089  -0.1121204), wk =   0.0185185
        k(   62) = (  -0.3980407  -0.2298089  -0.3363612), wk =   0.0185185
        k(   63) = (  -0.3980407  -0.2298089  -0.5606020), wk =   0.0185185

     Dense  grid:    17661 G-vectors     FFT dimensions: (  40,  40,  27)

     Largest allocated arrays     est. size (Mb)     dimensions
        Kohn-Sham Wavefunctions         0.57 Mb     (   3104,   12)
        NL pseudopotentials             0.43 Mb     (   3104,    9)
        Each V/rho on FFT grid          0.66 Mb     (  43200)
        Each G-vector array             0.13 Mb     (  17661)
        G-vector shells                 0.01 Mb     (    852)
     Largest temporary arrays     est. size (Mb)     dimensions
        Auxiliary wavefunctions         2.27 Mb     (   3104,   48)
        Each subspace H/S matrix        0.04 Mb     (  48,  48)
        Each <psi_i|beta_j> matrix      0.00 Mb     (      9,   12)
        Arrays for rho mixing          10.55 Mb     (  43200,  16)

     Initial potential from superposition of free atoms

     starting charge   21.99998, renormalised to   24.00000
     Starting wfc are   14 randomized atomic wfcs

     Writing output data file CaOH2_ambient.save

     total cpu time spent up to now is     7250.8 secs

     per-process dynamical memory:    15.4 Mb

     Self-consistent Calculation

     iteration #  1     ecut=   100.00 Ry     beta=0.30
     Davidson diagonalization with overlap
     ethr =  1.00E-06,  avg # of iterations =  5.7

     total cpu time spent up to now is     7271.6 secs

     total energy              =    -139.76538169 Ry
     Harris-Foulkes estimate   =    -139.84636266 Ry
     estimated scf accuracy    <       0.46375651 Ry

     iteration #  2     ecut=   100.00 Ry     beta=0.30
     Davidson diagonalization with overlap
     ethr =  1.93E-03,  avg # of iterations =  1.0

     total cpu time spent up to now is     7278.0 secs

     total energy              =    -139.57379174 Ry
     Harris-Foulkes estimate   =    -139.76903636 Ry
     estimated scf accuracy    <       0.29914057 Ry

     iteration #  3     ecut=   100.00 Ry     beta=0.30
     Davidson diagonalization with overlap
     ethr =  1.25E-03,  avg # of iterations =  2.0

     total cpu time spent up to now is     7286.7 secs

     total energy              =    -139.62426611 Ry
     Harris-Foulkes estimate   =    -139.62904932 Ry
     estimated scf accuracy    <       0.01723022 Ry

     iteration #  4     ecut=   100.00 Ry     beta=0.30
     Davidson diagonalization with overlap
     ethr =  7.18E-05,  avg # of iterations =  2.0

     total cpu time spent up to now is     7293.8 secs

     total energy              =    -139.62391172 Ry
     Harris-Foulkes estimate   =    -139.62563035 Ry
     estimated scf accuracy    <       0.00330773 Ry

     iteration #  5     ecut=   100.00 Ry     beta=0.30
     Davidson diagonalization with overlap
     ethr =  1.38E-05,  avg # of iterations =  2.0

     total cpu time spent up to now is     7301.8 secs

     total energy              =    -139.62376819 Ry
     Harris-Foulkes estimate   =    -139.62429688 Ry
     estimated scf accuracy    <       0.00117133 Ry

     iteration #  6     ecut=   100.00 Ry     beta=0.30
     Davidson diagonalization with overlap
     ethr =  4.88E-06,  avg # of iterations =  2.0

     total cpu time spent up to now is     7310.1 secs

     total energy              =    -139.62399742 Ry
     Harris-Foulkes estimate   =    -139.62400008 Ry
     estimated scf accuracy    <       0.00003200 Ry

     iteration #  7     ecut=   100.00 Ry     beta=0.30
     Davidson diagonalization with overlap
     ethr =  1.33E-07,  avg # of iterations =  2.0

     total cpu time spent up to now is     7319.0 secs

     total energy              =    -139.62400215 Ry
     Harris-Foulkes estimate   =    -139.62400197 Ry
     estimated scf accuracy    <       0.00001079 Ry

     iteration #  8     ecut=   100.00 Ry     beta=0.30
     Davidson diagonalization with overlap
     ethr =  4.50E-08,  avg # of iterations =  1.0

     total cpu time spent up to now is     7325.4 secs

     total energy              =    -139.62400127 Ry
     Harris-Foulkes estimate   =    -139.62400268 Ry
     estimated scf accuracy    <       0.00000285 Ry

     iteration #  9     ecut=   100.00 Ry     beta=0.30
     Davidson diagonalization with overlap
     ethr =  1.19E-08,  avg # of iterations =  2.0

     total cpu time spent up to now is     7333.7 secs

     total energy              =    -139.62400210 Ry
     Harris-Foulkes estimate   =    -139.62400209 Ry
     estimated scf accuracy    <       0.00000008 Ry

     iteration # 10     ecut=   100.00 Ry     beta=0.30
     Davidson diagonalization with overlap
     ethr =  3.18E-10,  avg # of iterations =  2.0

     total cpu time spent up to now is     7342.0 secs

     total energy              =    -139.62400211 Ry
     Harris-Foulkes estimate   =    -139.62400211 Ry
     estimated scf accuracy    <       0.00000002 Ry

     iteration # 11     ecut=   100.00 Ry     beta=0.30
     Davidson diagonalization with overlap
     ethr =  6.71E-11,  avg # of iterations =  2.0

     total cpu time spent up to now is     7349.8 secs

     End of self-consistent calculation

          k = 0.0796 0.1379 0.1121 (  3097 PWs)   bands (ev):

   -25.7492  -8.4332  -7.0229  -6.4287  -5.8822  -4.1236   8.3765   8.5964
     9.0839  10.5471  12.7456  13.2772

          k = 0.0796 0.1379 0.3364 (  3094 PWs)   bands (ev):

   -25.4668  -8.4489  -7.1968  -6.7966  -5.4544  -3.6724   5.7050   8.1245
     9.0113   9.6914  12.1976  13.1149

          k = 0.0796 0.1379 0.5606 (  3102 PWs)   bands (ev):

   -25.1613  -9.3634  -6.8375  -6.5640  -4.8434  -3.2400   3.4956   5.8794
     9.9783  10.8163  11.3318  12.4046

          k = 0.0796 0.3217 0.1121 (  3092 PWs)   bands (ev):

   -25.7021  -9.1129  -7.2375  -6.2672  -5.2075  -4.3064   8.5097   9.0226
    10.0843  10.2442  12.1709  13.3911

          k = 0.0796 0.3217 0.3364 (  3087 PWs)   bands (ev):

   -25.4262  -8.5465  -7.5926  -6.9323  -5.0051  -3.7885   5.8469   7.5463
     9.0410  10.5873  12.4620  13.3496

          k = 0.0796 0.3217 0.5606 (  3082 PWs)   bands (ev):

   -25.1283  -9.0519  -7.3969  -6.6595  -4.9228  -3.2148   3.7617   5.2354
     9.6296  10.9541  12.4846  12.8502

          k = 0.0796 0.5056 0.1121 (  3100 PWs)   bands (ev):

   -25.6672  -9.4409  -7.4086  -6.1635  -5.3604  -3.8593   8.6106   9.3725
     9.8224  10.4122  12.5134  13.3583

          k = 0.0796 0.5056 0.3364 (  3091 PWs)   bands (ev):

   -25.3962  -8.7337  -7.5777  -7.0514  -4.9674  -3.7813   6.3297   7.0619
     9.2414  10.7249  12.7566  13.2490

          k = 0.0796 0.5056 0.5606 (  3065 PWs)   bands (ev):

   -25.1040  -8.7848  -7.7343  -6.7371  -4.9435  -3.4473   4.2282   4.8134
     9.5641  11.4335  12.6756  12.8316

          k = 0.0796-0.4137 0.1121 (  3093 PWs)   bands (ev):

   -25.6800  -9.3447  -7.3354  -6.1417  -5.2471  -4.1628   8.8230   9.2945
    10.0450  10.2833  12.1704  13.1210

          k = 0.0796-0.4137 0.3364 (  3087 PWs)   bands (ev):

   -25.4071  -8.7356  -7.4750  -7.0247  -4.6211  -4.2428   6.4269   7.1719
     9.4783  10.7381  12.3162  12.7624

          k = 0.0796-0.4137 0.5606 (  3075 PWs)   bands (ev):

   -25.1129  -8.9120  -7.5888  -6.7088  -4.7791  -3.5694   4.2766   4.8329
     9.8499  11.1888  12.4098  12.6067

          k = 0.0796-0.2298 0.1121 (  3097 PWs)   bands (ev):

   -25.7274  -8.8173  -7.1149  -6.2637  -5.4656  -4.3745   8.5609   8.9321
     9.4788  10.4266  12.3800  13.1377

          k = 0.0796-0.2298 0.3364 (  3086 PWs)   bands (ev):

   -25.4480  -8.5252  -7.3744  -6.8638  -5.0372  -3.9546   5.8664   7.8520
     9.2826  10.0456  12.1057  13.0139

          k = 0.0796-0.2298 0.5606 (  3099 PWs)   bands (ev):

   -25.1460  -9.2335  -7.1103  -6.6083  -4.7776  -3.3274   3.6723   5.5389
    10.1621  10.5580  11.6749  12.6916

          k = 0.0796-0.0460 0.1121 (  3090 PWs)   bands (ev):

   -25.7617  -8.0951  -6.9782  -6.6900  -6.0734  -3.9565   8.2433   8.3893
     8.8780  10.6227  12.9902  13.3498

          k = 0.0796-0.0460 0.3364 (  3085 PWs)   bands (ev):

   -25.4775  -8.4266  -6.9766  -6.7642  -5.7672  -3.5296   5.6551   8.3154
     8.8874   9.3854  12.3663  13.0130

          k = 0.0796-0.0460 0.5606 (  3101 PWs)   bands (ev):

   -25.1700  -9.4357  -6.6502  -6.5413  -4.8897  -3.2298   3.4328   6.0975
     9.9984  10.7412  11.3239  12.0793

          k = 0.2388 0.4137 0.1121 (  3090 PWs)   bands (ev):

   -25.6673  -9.1907  -8.0283  -6.1304  -4.5394  -4.2961   8.1173   9.4152
     9.8473  11.1394  11.8655  13.7314

          k = 0.2388 0.4137 0.3364 (  3091 PWs)   bands (ev):

   -25.3962  -8.5502  -7.6068  -7.4251  -4.4603  -4.0564   6.3782   7.0779
     9.0159  11.1866  12.2829  13.2966

          k = 0.2388 0.4137 0.5606 (  3078 PWs)   bands (ev):

   -25.1041  -8.8003  -7.5545  -7.0049  -4.6454  -3.6911   4.3374   4.7977
    10.0507  11.1170  12.4250  12.6553

          k = 0.2388 0.5975 0.1121 (  3096 PWs)   bands (ev):

   -25.6579  -9.1073  -8.3347  -6.1137  -4.4988  -4.1165   7.9430   9.4817
     9.7328  11.3728  11.9053  13.9114

          k = 0.2388 0.5975 0.3364 (  3092 PWs)   bands (ev):

   -25.3882  -8.4607  -7.7973  -7.4684  -4.3421  -4.0755   6.6367   6.8616
     8.8679  11.4782  12.1109  13.4156

          k = 0.2388 0.5975 0.5606 (  3076 PWs)   bands (ev):

   -25.0975  -8.7235  -7.5485  -7.1545  -4.4862  -3.9092   4.5785   4.6311
    10.0767  11.4808  12.2187  12.5008

          k = 0.2388-0.3217 0.1121 (  3091 PWs)   bands (ev):

   -25.6834  -9.2046  -7.6153  -6.1758  -4.8476  -4.3346   8.3317   9.3048
     9.9665  10.6661  11.9826  13.5184

          k = 0.2388-0.3217 0.3364 (  3093 PWs)   bands (ev):

   -25.4101  -8.5825  -7.5843  -7.1714  -4.7390  -3.9201   6.0813   7.3202
     9.1105  10.8187  12.4900  13.2349

          k = 0.2388-0.3217 0.5606 (  3077 PWs)   bands (ev):

   -25.1153  -8.9212  -7.5088  -6.8128  -4.8171  -3.4185   4.0294   5.0083
     9.8554  10.9405  12.5306  12.8291

          k = 0.2388-0.1379 0.1121 (  3092 PWs)   bands (ev):

   -25.7181  -8.9474  -7.0613  -6.3539  -5.4066  -4.2951   8.6208   8.6856
     9.9305  10.2340  12.2861  13.3892

          k = 0.2388-0.1379 0.3364 (  3091 PWs)   bands (ev):

   -25.4400  -8.4916  -7.5493  -6.8328  -5.1518  -3.7281   5.7302   7.7320
     8.9380  10.4386  12.3116  13.4150

          k = 0.2388-0.1379 0.5606 (  3089 PWs)   bands (ev):

   -25.1396  -9.1617  -7.2442  -6.5952  -4.9343  -3.1437   3.6121   5.4352
     9.5811  10.9610  12.2800  12.7345

          k = 0.3980 0.6894 0.1121 (  3092 PWs)   bands (ev):

   -25.6613  -9.3156  -7.9038  -6.1226  -4.9219  -3.9407   8.2179   9.4485
     9.7913  10.9027  12.1950  13.6821

          k = 0.3980 0.6894 0.3364 (  3096 PWs)   bands (ev):

   -25.3911  -8.6339  -7.5876  -7.3571  -4.6420  -3.9214   6.5511   6.9095
     9.0672  11.0928  12.3987  13.3363

          k = 0.3980 0.6894 0.5606 (  3075 PWs)   bands (ev):

   -25.0999  -8.7468  -7.6674  -6.9415  -4.7188  -3.6827   4.4493   4.6923
     9.8477  11.4609  12.4431  12.6219

          k = 0.3980-0.2298 0.1121 (  3104 PWs)   bands (ev):

   -25.6740  -9.4370  -7.1437  -6.2415  -5.5182  -3.8877   8.8782   9.1266
     9.8408  10.2645  12.6672  13.1768

          k = 0.3980-0.2298 0.3364 (  3082 PWs)   bands (ev):

   -25.4020  -8.7267  -7.6044  -6.9028  -5.1134  -3.7081   6.1372   7.1926
     9.2306  10.6038  12.9309  13.2484

          k = 0.3980-0.2298 0.5606 (  3064 PWs)   bands (ev):

   -25.1087  -8.8334  -7.7145  -6.6497  -5.0336  -3.3088   4.0548   4.9200
     9.4420  11.3481  12.7866  12.9501

          k =-0.0796 0.3217-0.1121 (  3092 PWs)   bands (ev):

   -25.7021  -9.1319  -7.2285  -6.1854  -5.1640  -4.4524   8.7354   9.1809
     9.9441  10.2908  12.0889  13.0751

          k =-0.0796 0.3217-0.3364 (  3087 PWs)   bands (ev):

   -25.4261  -8.6398  -7.4493  -6.9479  -4.6180  -4.2994   6.1283   7.5255
     9.4763  10.4358  12.1734  12.7856

          k =-0.0796 0.3217-0.5606 (  3082 PWs)   bands (ev):

   -25.1283  -9.0712  -7.3776  -6.6611  -4.7457  -3.4675   3.9577   5.1685
    10.1007  10.7077  12.0695  12.7459

          k =-0.0796 0.5056-0.1121 (  3100 PWs)   bands (ev):

   -25.6672  -9.4475  -7.4036  -6.1333  -5.3588  -3.9042   8.7367   9.3628
     9.9152  10.3487  12.4223  13.2552

          k =-0.0796 0.5056-0.3364 (  3091 PWs)   bands (ev):

   -25.3961  -8.7701  -7.5139  -7.0633  -4.8513  -3.9530   6.5855   6.9255
     9.3673  10.7840  12.5296  13.0206

          k =-0.0796 0.5056-0.5606 (  3065 PWs)   bands (ev):

   -25.1040  -8.8003  -7.7172  -6.7374  -4.8661  -3.5580   4.4294   4.6668
     9.6631  11.5197  12.4883  12.6918

          k =-0.0796-0.4137-0.1121 (  3093 PWs)   bands (ev):

   -25.6800  -9.3280  -7.3463  -6.2143  -5.2691  -4.0406   8.5502   9.2410
     9.8766  10.4379  12.3556  13.3884

          k =-0.0796-0.4137-0.3364 (  3087 PWs)   bands (ev):

   -25.4072  -8.6452  -7.6237  -7.0024  -4.9913  -3.7429   6.0419   7.2808
     9.1317  10.6840  12.7563  13.3407

          k =-0.0796-0.4137-0.5606 (  3075 PWs)   bands (ev):

   -25.1129  -8.8837  -7.6195  -6.7077  -4.9621  -3.3077   3.9877   4.9913
     9.5549  11.1842  12.7292  12.9107

          k =-0.0796-0.2298-0.1121 (  3097 PWs)   bands (ev):

   -25.7274  -8.8049  -7.1179  -6.3229  -5.4543  -4.3216   8.4479   8.7987
     9.6865  10.3550  12.3245  13.3568

          k =-0.0796-0.2298-0.3364 (  3086 PWs)   bands (ev):

   -25.4480  -8.4801  -7.4430  -6.8575  -5.1464  -3.7855   5.7486   7.8479
     8.9896  10.2610  12.1845  13.2726

          k =-0.0796-0.2298-0.5606 (  3099 PWs)   bands (ev):

   -25.1460  -9.2268  -7.1154  -6.6068  -4.8651  -3.2048   3.5943   5.5530
     9.7772  10.8265  11.9492  12.6658

          k =-0.0796-0.0460-0.1121 (  3090 PWs)   bands (ev):

   -25.7617  -8.1008  -6.9796  -6.6661  -6.0871  -3.9620   8.3330   8.3483
     8.8340  10.6310  13.1334  13.1839

          k =-0.0796-0.0460-0.3364 (  3085 PWs)   bands (ev):

   -25.4775  -8.4328  -6.9635  -6.7671  -5.7594  -3.5482   5.6729   8.3064
     9.0868   9.2005  12.3776  12.9582

          k =-0.0796-0.0460-0.5606 (  3101 PWs)   bands (ev):

   -25.1700  -9.4365  -6.6494  -6.5429  -4.8740  -3.2501   3.4435   6.0972
    10.1313  10.6276  11.2401  12.1243

          k =-0.2388 0.5975-0.1121 (  3096 PWs)   bands (ev):

   -25.6579  -9.1048  -8.3376  -6.1154  -4.5147  -4.0963   7.9284   9.5081
     9.7008  11.3488  11.9414  13.9276

          k =-0.2388 0.5975-0.3364 (  3092 PWs)   bands (ev):

   -25.3882  -8.4456  -7.8271  -7.4559  -4.4033  -4.0059   6.5647   6.9146
     8.8571  11.4199  12.1884  13.4495

          k =-0.2388 0.5975-0.5606 (  3076 PWs)   bands (ev):

   -25.0975  -8.7208  -7.5528  -7.1533  -4.5137  -3.8766   4.4971   4.7044
    10.0516  11.4608  12.3034  12.4818

          k =-0.2388-0.3217-0.1121 (  3091 PWs)   bands (ev):

   -25.6834  -9.2135  -7.6061  -6.1550  -4.7622  -4.4556   8.4324   9.3010
    10.0566  10.6494  11.8753  13.4055

          k =-0.2388-0.3217-0.3364 (  3093 PWs)   bands (ev):

   -25.4101  -8.6297  -7.4830  -7.2101  -4.4887  -4.2267   6.2370   7.2845
     9.2459  10.8687  12.2844  12.9885

          k =-0.2388-0.3217-0.5606 (  3077 PWs)   bands (ev):

   -25.1153  -8.9327  -7.4957  -6.8132  -4.7294  -3.5411   4.1422   4.9523
    10.0653  10.8340  12.4017  12.7168

          k =-0.2388-0.1379-0.1121 (  3092 PWs)   bands (ev):

   -25.7181  -8.9710  -7.0640  -6.2199  -5.4198  -4.4227   8.8369   9.0462
     9.4520  10.4074  12.3731  12.9115

          k =-0.2388-0.1379-0.3364 (  3091 PWs)   bands (ev):

   -25.4400  -8.5931  -7.4037  -6.8385  -4.8542  -4.1614   6.0092   7.7350
     9.6203   9.9769  12.0837  12.8169

          k =-0.2388-0.1379-0.5606 (  3089 PWs)   bands (ev):

   -25.1395  -9.1788  -7.2294  -6.5983  -4.7388  -3.4202   3.8010   5.3907
    10.2315  10.5887  11.6871  12.7397

          k =-0.3980-0.2298-0.1121 (  3104 PWs)   bands (ev):

   -25.6740  -9.4505  -7.1449  -6.1380  -5.5458  -3.9799   9.2191   9.2608
     9.8042  10.1251  12.5342  12.9074

          k =-0.3980-0.2298-0.3364 (  3082 PWs)   bands (ev):

   -25.4020  -8.8004  -7.4941  -6.9056  -4.8712  -4.0707   6.5584   7.0280
     9.5691  10.6299  12.5834  12.6525

          k =-0.3980-0.2298-0.5606 (  3064 PWs)   bands (ev):

   -25.1087  -8.8630  -7.6828  -6.6513  -4.8754  -3.5388   4.3841   4.7110
     9.6523  11.4855  12.5323  12.5493

!    total energy              =    -139.62400211 Ry
     Harris-Foulkes estimate   =    -139.62400211 Ry
     estimated scf accuracy    <          1.4E-09 Ry

     The total energy is the sum of the following terms:

     one-electron contribution =      -6.73207974 Ry
     hartree contribution      =      20.93149789 Ry
     xc contribution           =     -26.79485748 Ry
     ewald contribution        =    -127.02856279 Ry

     convergence has been achieved in  11 iterations

     Forces acting on atoms (Ry/au):

     atom    1 type  3   force =    -0.00000000    0.00000000   -0.00000000
     atom    2 type  2   force =    -0.00000000   -0.00000000   -0.00031901
     atom    3 type  2   force =     0.00000000    0.00000000    0.00031901
     atom    4 type  1   force =     0.00000000    0.00000000    0.00009296
     atom    5 type  1   force =     0.00000000   -0.00000000   -0.00009296

     Total force =     0.000470     Total SCF correction =     0.000065
     SCF correction compared to forces is large: reduce conv_thr to get better values


     entering subroutine stress ...

          total   stress  (Ry/bohr**3)                   (kbar)     P= 1202.47
   0.00819984   0.00000000  -0.00000000       1206.24      0.00     -0.00
   0.00000000   0.00819984   0.00000000          0.00   1206.24      0.00
  -0.00000000   0.00000000   0.00812303         -0.00      0.00   1194.94


     Writing output data file CaOH2_ambient.save

     init_run     :     48.16s CPU     48.35s WALL (       2 calls)
     electrons    :   4311.05s CPU   4372.31s WALL (      32 calls)
     update_pot   :   1363.67s CPU   1367.95s WALL (      30 calls)
     forces       :    483.29s CPU    484.68s WALL (      32 calls)
     stress       :   1073.26s CPU   1075.88s WALL (      32 calls)

     Called by init_run:
     wfcinit      :     11.41s CPU     11.49s WALL (       2 calls)
     potinit      :     15.42s CPU     15.46s WALL (       2 calls)

     Called by electrons:
     c_bands      :   3636.52s CPU   3684.94s WALL (     261 calls)
     sum_band     :    615.11s CPU    625.92s WALL (     261 calls)
     v_of_rho     :     32.75s CPU     33.40s WALL (     292 calls)
     mix_rho      :     28.70s CPU     29.64s WALL (     261 calls)

     Called by c_bands:
     init_us_2    :    114.75s CPU    123.63s WALL (   37044 calls)
     cegterg      :   3575.06s CPU   3589.08s WALL (   16443 calls)

     Called by *egterg:
     h_psi        :   2777.31s CPU   2786.72s WALL (   54490 calls)
     g_psi        :     25.82s CPU     26.04s WALL (   37921 calls)
     cdiaghg      :     27.18s CPU     27.48s WALL (   52411 calls)

     Called by h_psi:
     add_vuspsi   :     67.62s CPU     67.88s WALL (   54490 calls)

     General routines
     calbec       :     75.61s CPU     76.02s WALL (   58522 calls)
     fft          :      9.33s CPU      9.38s WALL (    3468 calls)
     ffts         :     13.10s CPU     13.13s WALL (    4844 calls)
     fftw         :   2601.50s CPU   2607.56s WALL ( 1320074 calls)
     davcio       :     12.95s CPU     45.73s WALL (   53487 calls)


     PWSCF        :     2h 1m CPU        2h 2m WALL


   This run was terminated on:  13:44: 2  19Apr2014            

=------------------------------------------------------------------------------=
   JOB DONE.
=------------------------------------------------------------------------------=
