
     Program PWSCF v.5.0.2 (svn rev. 9392) starts on 19Apr2014 at 13:50:16 

     This program is part of the open-source Quantum ESPRESSO suite
     for quantum simulation of materials; please cite
         "P. Giannozzi et al., J. Phys.:Condens. Matter 21 395502 (2009);
          URL http://www.quantum-espresso.org", 
     in publications or presentations arising from this work. More details at
     http://www.quantum-espresso.org/quote.php

     Serial version

     Current dimensions of program PWSCF are:
     Max number of different atomic species (ntypx) = 10
     Max number of k-points (npk) =  40000
     Max angular momentum in pseudopotentials (lmaxx) =  3
     Waiting for input...
     Reading input from standard input

     G-vector sticks info
     --------------------
     sticks:   dense  smooth     PW     G-vecs:    dense   smooth      PW
     Sum         913     913    349                16131    16131    3725



     bravais-lattice index     =            4
     lattice parameter (alat)  =       6.3764  a.u.
     unit-cell volume          =     166.8192 (a.u.)^3
     number of atoms/cell      =            5
     number of atomic types    =            3
     number of electrons       =        24.00
     number of Kohn-Sham states=           12
     kinetic-energy cutoff     =     100.0000  Ry
     charge density cutoff     =     320.0000  Ry
     convergence threshold     =      1.0E-06
     mixing beta               =       0.3000
     number of iterations used =           16  local-TF  mixing
     Exchange-correlation      = PBE ( 1 4 3 4 0)
     EXX-fraction              =        0.00
     nstep                     =           50


     celldm(1)=   6.376400  celldm(2)=   0.000000  celldm(3)=   0.743000
     celldm(4)=   0.000000  celldm(5)=   0.000000  celldm(6)=   0.000000

     crystal axes: (cart. coord. in units of alat)
               a(1) = (   1.000000   0.000000   0.000000 )  
               a(2) = (  -0.500000   0.866025   0.000000 )  
               a(3) = (   0.000000   0.000000   0.743000 )  

     reciprocal axes: (cart. coord. in units 2 pi/alat)
               b(1) = (  1.000000  0.577350 -0.000000 )  
               b(2) = (  0.000000  1.154701  0.000000 )  
               b(3) = (  0.000000 -0.000000  1.345895 )  


     PseudoPot. # 1 for H  read from file:
     /home/ilia/espresso/pseudo/H.pbe-sp-mt.ncpp
     MD5 check sum: 7a641936b52ccecd26bd1ad87cca5aed
     Pseudo is Norm-conserving, Zval =  1.0
     Generated by old ld1 code (numerical format)
     Using radial grid of 1076 points,  0 beta functions with: 

     PseudoPot. # 2 for O  read from file:
     /home/ilia/espresso/pseudo/O.pbe-sp-mt.ncpp
     MD5 check sum: 8a3d23d410d2f3ebfd0a39faacc72cbb
     Pseudo is Norm-conserving, Zval =  6.0
     Generated by old ld1 code (numerical format)
     Using radial grid of 1130 points,  1 beta functions with: 
                l(1) =   1

     PseudoPot. # 3 for Ca read from file:
     /home/ilia/espresso/pseudo/Ca.pbe-sp-mt_ion2.ncpp
     MD5 check sum: 4bcd670d05521f7b178fdf0a334578ab
     Pseudo is Norm-conserving, Zval = 10.0
     Generated by old ld1 code (numerical format)
     Using radial grid of 1153 points,  1 beta functions with: 
                l(1) =   1

     atomic species   valence    mass     pseudopotential
        H              1.00     1.00700     H ( 1.00)
        O              6.00    16.00000     O ( 1.00)
        Ca            10.00    40.07800     Ca( 1.00)

      6 Sym. Ops. (no inversion) found



   Cartesian axes

     site n.     atom                  positions (alat units)
         1           Ca  tau(   1) = (   0.0000000   0.0000000   0.0000000  )
         2           O   tau(   2) = (   0.0000000   0.5773503   0.2132410  )
         3           O   tau(   3) = (   0.5000000   0.2886751   0.5290160  )
         4           H   tau(   4) = (   0.0000000   0.5773503   0.5007820  )
         5           H   tau(   5) = (   0.5000000   0.2886751   0.2414750  )

     number of k points=    63
                       cart. coord. in units 2pi/alat
        k(    1) = (   0.0833333   0.1443376   0.1121579), wk =   0.0370370
        k(    2) = (   0.0833333   0.1443376   0.3364738), wk =   0.0370370
        k(    3) = (   0.0833333   0.1443376   0.5607896), wk =   0.0370370
        k(    4) = (   0.0833333   0.3367877   0.1121579), wk =   0.0370370
        k(    5) = (   0.0833333   0.3367877   0.3364738), wk =   0.0370370
        k(    6) = (   0.0833333   0.3367877   0.5607896), wk =   0.0370370
        k(    7) = (   0.0833333   0.5292377   0.1121579), wk =   0.0370370
        k(    8) = (   0.0833333   0.5292377   0.3364738), wk =   0.0370370
        k(    9) = (   0.0833333   0.5292377   0.5607896), wk =   0.0370370
        k(   10) = (   0.0833333  -0.4330127   0.1121579), wk =   0.0370370
        k(   11) = (   0.0833333  -0.4330127   0.3364738), wk =   0.0370370
        k(   12) = (   0.0833333  -0.4330127   0.5607896), wk =   0.0370370
        k(   13) = (   0.0833333  -0.2405626   0.1121579), wk =   0.0370370
        k(   14) = (   0.0833333  -0.2405626   0.3364738), wk =   0.0370370
        k(   15) = (   0.0833333  -0.2405626   0.5607896), wk =   0.0370370
        k(   16) = (   0.0833333  -0.0481125   0.1121579), wk =   0.0185185
        k(   17) = (   0.0833333  -0.0481125   0.3364738), wk =   0.0185185
        k(   18) = (   0.0833333  -0.0481125   0.5607896), wk =   0.0185185
        k(   19) = (   0.2500000   0.4330127   0.1121579), wk =   0.0370370
        k(   20) = (   0.2500000   0.4330127   0.3364738), wk =   0.0370370
        k(   21) = (   0.2500000   0.4330127   0.5607896), wk =   0.0370370
        k(   22) = (   0.2500000   0.6254628   0.1121579), wk =   0.0370370
        k(   23) = (   0.2500000   0.6254628   0.3364738), wk =   0.0370370
        k(   24) = (   0.2500000   0.6254628   0.5607896), wk =   0.0370370
        k(   25) = (   0.2500000  -0.3367877   0.1121579), wk =   0.0370370
        k(   26) = (   0.2500000  -0.3367877   0.3364738), wk =   0.0370370
        k(   27) = (   0.2500000  -0.3367877   0.5607896), wk =   0.0370370
        k(   28) = (   0.2500000  -0.1443376   0.1121579), wk =   0.0185185
        k(   29) = (   0.2500000  -0.1443376   0.3364738), wk =   0.0185185
        k(   30) = (   0.2500000  -0.1443376   0.5607896), wk =   0.0185185
        k(   31) = (   0.4166667   0.7216878   0.1121579), wk =   0.0370370
        k(   32) = (   0.4166667   0.7216878   0.3364738), wk =   0.0370370
        k(   33) = (   0.4166667   0.7216878   0.5607896), wk =   0.0370370
        k(   34) = (   0.4166667  -0.2405626   0.1121579), wk =   0.0185185
        k(   35) = (   0.4166667  -0.2405626   0.3364738), wk =   0.0185185
        k(   36) = (   0.4166667  -0.2405626   0.5607896), wk =   0.0185185
        k(   37) = (  -0.0833333  -0.3367877   0.1121579), wk =   0.0370370
        k(   38) = (  -0.0833333  -0.3367877   0.3364738), wk =   0.0370370
        k(   39) = (  -0.0833333  -0.3367877   0.5607896), wk =   0.0370370
        k(   40) = (  -0.0833333  -0.5292377   0.1121579), wk =   0.0370370
        k(   41) = (  -0.0833333  -0.5292377   0.3364738), wk =   0.0370370
        k(   42) = (  -0.0833333  -0.5292377   0.5607896), wk =   0.0370370
        k(   43) = (  -0.0833333   0.4330127   0.1121579), wk =   0.0370370
        k(   44) = (  -0.0833333   0.4330127   0.3364738), wk =   0.0370370
        k(   45) = (  -0.0833333   0.4330127   0.5607896), wk =   0.0370370
        k(   46) = (  -0.0833333   0.2405626   0.1121579), wk =   0.0370370
        k(   47) = (  -0.0833333   0.2405626   0.3364738), wk =   0.0370370
        k(   48) = (  -0.0833333   0.2405626   0.5607896), wk =   0.0370370
        k(   49) = (  -0.0833333   0.0481125   0.1121579), wk =   0.0185185
        k(   50) = (  -0.0833333   0.0481125   0.3364738), wk =   0.0185185
        k(   51) = (  -0.0833333   0.0481125   0.5607896), wk =   0.0185185
        k(   52) = (  -0.2500000  -0.6254628   0.1121579), wk =   0.0370370
        k(   53) = (  -0.2500000  -0.6254628   0.3364738), wk =   0.0370370
        k(   54) = (  -0.2500000  -0.6254628   0.5607896), wk =   0.0370370
        k(   55) = (  -0.2500000   0.3367877   0.1121579), wk =   0.0370370
        k(   56) = (  -0.2500000   0.3367877   0.3364738), wk =   0.0370370
        k(   57) = (  -0.2500000   0.3367877   0.5607896), wk =   0.0370370
        k(   58) = (  -0.2500000   0.1443376   0.1121579), wk =   0.0185185
        k(   59) = (  -0.2500000   0.1443376   0.3364738), wk =   0.0185185
        k(   60) = (  -0.2500000   0.1443376   0.5607896), wk =   0.0185185
        k(   61) = (  -0.4166667   0.2405626   0.1121579), wk =   0.0185185
        k(   62) = (  -0.4166667   0.2405626   0.3364738), wk =   0.0185185
        k(   63) = (  -0.4166667   0.2405626   0.5607896), wk =   0.0185185

     Dense  grid:    16131 G-vectors     FFT dimensions: (  40,  40,  27)

     Largest allocated arrays     est. size (Mb)     dimensions
        Kohn-Sham Wavefunctions         0.52 Mb     (   2834,   12)
        NL pseudopotentials             0.39 Mb     (   2834,    9)
        Each V/rho on FFT grid          0.66 Mb     (  43200)
        Each G-vector array             0.12 Mb     (  16131)
        G-vector shells                 0.12 Mb     (  16131)
     Largest temporary arrays     est. size (Mb)     dimensions
        Auxiliary wavefunctions         2.08 Mb     (   2834,   48)
        Each subspace H/S matrix        0.04 Mb     (  48,  48)
        Each <psi_i|beta_j> matrix      0.00 Mb     (      9,   12)
        Arrays for rho mixing          10.55 Mb     (  43200,  16)

     Initial potential from superposition of free atoms

     starting charge   21.99998, renormalised to   24.00000
     Starting wfc are   14 randomized atomic wfcs

     total cpu time spent up to now is       26.4 secs

     per-process dynamical memory:    10.3 Mb

     Self-consistent Calculation

     iteration #  1     ecut=   100.00 Ry     beta=0.30
     Davidson diagonalization with overlap
     ethr =  1.00E-02,  avg # of iterations =  2.0

     total cpu time spent up to now is       36.2 secs

     total energy              =    -139.59409855 Ry
     Harris-Foulkes estimate   =    -139.68131477 Ry
     estimated scf accuracy    <       0.48878317 Ry

     iteration #  2     ecut=   100.00 Ry     beta=0.30
     Davidson diagonalization with overlap
     ethr =  2.04E-03,  avg # of iterations =  1.0

     total cpu time spent up to now is       43.0 secs

     total energy              =    -139.40018384 Ry
     Harris-Foulkes estimate   =    -139.60022978 Ry
     estimated scf accuracy    <       0.30844683 Ry

     iteration #  3     ecut=   100.00 Ry     beta=0.30
     Davidson diagonalization with overlap
     ethr =  1.29E-03,  avg # of iterations =  2.0

     total cpu time spent up to now is       52.2 secs

     total energy              =    -139.45895794 Ry
     Harris-Foulkes estimate   =    -139.46277718 Ry
     estimated scf accuracy    <       0.02178501 Ry

     iteration #  4     ecut=   100.00 Ry     beta=0.30
     Davidson diagonalization with overlap
     ethr =  9.08E-05,  avg # of iterations =  1.0

     total cpu time spent up to now is       58.3 secs

     total energy              =    -139.45470474 Ry
     Harris-Foulkes estimate   =    -139.45973060 Ry
     estimated scf accuracy    <       0.00981686 Ry

     iteration #  5     ecut=   100.00 Ry     beta=0.30
     Davidson diagonalization with overlap
     ethr =  4.09E-05,  avg # of iterations =  2.0

     total cpu time spent up to now is       66.9 secs

     total energy              =    -139.45636779 Ry
     Harris-Foulkes estimate   =    -139.45684761 Ry
     estimated scf accuracy    <       0.00287907 Ry

     iteration #  6     ecut=   100.00 Ry     beta=0.30
     Davidson diagonalization with overlap
     ethr =  1.20E-05,  avg # of iterations =  1.0

     total cpu time spent up to now is       73.2 secs

     total energy              =    -139.45547163 Ry
     Harris-Foulkes estimate   =    -139.45640896 Ry
     estimated scf accuracy    <       0.00169659 Ry

     iteration #  7     ecut=   100.00 Ry     beta=0.30
     Davidson diagonalization with overlap
     ethr =  7.07E-06,  avg # of iterations =  2.0

     total cpu time spent up to now is       82.6 secs

     total energy              =    -139.45593071 Ry
     Harris-Foulkes estimate   =    -139.45593978 Ry
     estimated scf accuracy    <       0.00006090 Ry

     iteration #  8     ecut=   100.00 Ry     beta=0.30
     Davidson diagonalization with overlap
     ethr =  2.54E-07,  avg # of iterations =  1.8

     total cpu time spent up to now is       89.3 secs

     total energy              =    -139.45592284 Ry
     Harris-Foulkes estimate   =    -139.45593319 Ry
     estimated scf accuracy    <       0.00003854 Ry

     iteration #  9     ecut=   100.00 Ry     beta=0.30
     Davidson diagonalization with overlap
     ethr =  1.61E-07,  avg # of iterations =  1.9

     total cpu time spent up to now is       95.8 secs

     total energy              =    -139.45592078 Ry
     Harris-Foulkes estimate   =    -139.45592512 Ry
     estimated scf accuracy    <       0.00000984 Ry

     iteration # 10     ecut=   100.00 Ry     beta=0.30
     Davidson diagonalization with overlap
     ethr =  4.10E-08,  avg # of iterations =  2.0

     total cpu time spent up to now is      103.8 secs

     End of self-consistent calculation

          k = 0.0833 0.1443 0.1122 (  2820 PWs)   bands (ev):

   -23.7877  -7.2781  -5.1028  -4.5446  -3.9221  -2.2757   9.5748   9.7542
    10.3258  11.9509  14.5439  15.1495

          k = 0.0833 0.1443 0.3365 (  2812 PWs)   bands (ev):

   -23.4868  -7.2294  -5.3722  -4.8500  -3.5127  -1.8854   6.8224   9.5968
    10.2173  11.0752  13.7408  14.9132

          k = 0.0833 0.1443 0.5608 (  2794 PWs)   bands (ev):

   -23.1593  -7.9525  -5.0698  -4.5991  -3.0865  -1.5008   4.7363   7.3672
    11.1800  12.2021  12.6911  13.9989

          k = 0.0833 0.3368 0.1122 (  2825 PWs)   bands (ev):

   -23.6995  -8.0610  -5.4879  -4.3783  -3.3205  -2.2861   9.7281  10.3317
    11.3430  11.8891  13.8996  15.2111

          k = 0.0833 0.3368 0.3365 (  2820 PWs)   bands (ev):

   -23.4104  -7.4142  -5.8219  -5.0595  -3.2003  -1.8457   6.9489   8.8821
    10.3155  12.2411  14.1792  15.1472

          k = 0.0833 0.3368 0.5608 (  2810 PWs)   bands (ev):

   -23.0970  -7.4377  -5.9332  -4.7618  -3.3715  -1.3742   5.0131   6.6179
    10.7863  12.4591  14.1716  14.5932

          k = 0.0833 0.5292 0.1122 (  2821 PWs)   bands (ev):

   -23.6335  -8.4680  -5.7793  -4.2058  -3.6602  -1.6031   9.9715  10.7332
    11.0360  12.1026  14.2992  15.1079

          k = 0.0833 0.5292 0.3365 (  2819 PWs)   bands (ev):

   -23.3534  -7.6737  -5.7421  -5.2331  -3.3811  -1.7454   7.5500   8.3582
    10.6272  12.4011  14.5576  14.9970

          k = 0.0833 0.5292 0.5608 (  2816 PWs)   bands (ev):

   -23.0506  -6.9158  -6.4350  -4.9134  -3.6366  -1.6672   5.4494   6.3736
    10.7168  13.0949  14.4397  14.5900

          k = 0.0833-0.4330 0.1122 (  2826 PWs)   bands (ev):

   -23.6578  -8.3475  -5.6462  -4.1066  -3.6247  -1.9899  10.3056  10.5289
    11.3886  11.9283  13.8738  14.7960

          k = 0.0833-0.4330 0.3365 (  2823 PWs)   bands (ev):

   -23.3744  -7.6624  -5.5225  -5.2528  -3.0798  -2.2383   7.7456   8.4643
    10.9453  12.3853  13.9345  14.4259

          k = 0.0833-0.4330 0.5608 (  2806 PWs)   bands (ev):

   -23.0676  -7.2291  -6.1135  -4.8586  -3.3989  -1.8141   5.6364   6.2525
    11.0483  12.7493  14.0598  14.3938

          k = 0.0833-0.2406 0.1122 (  2825 PWs)   bands (ev):

   -23.7471  -7.7115  -5.2633  -4.3204  -3.5258  -2.5522   9.7983  10.1631
    10.9135  11.7949  14.1365  14.9256

          k = 0.0833-0.2406 0.3365 (  2814 PWs)   bands (ev):

   -23.4516  -7.3557  -5.5294  -4.9636  -3.0574  -2.2599   7.0272   9.2797
    10.5982  11.5232  13.5903  14.8300

          k = 0.0833-0.2406 0.5608 (  2803 PWs)   bands (ev):

   -23.1305  -7.7512  -5.4738  -4.6745  -3.0813  -1.5800   4.9530   6.9504
    11.4470  11.8655  13.1491  14.4103

          k = 0.0833-0.0481 0.1122 (  2815 PWs)   bands (ev):

   -23.8109  -6.9319  -5.0229  -4.8030  -4.1369  -2.0610   9.4048   9.5398
     9.9873  12.0508  14.8183  15.2505

          k = 0.0833-0.0481 0.3365 (  2817 PWs)   bands (ev):

   -23.5071  -7.1829  -5.1144  -4.7964  -3.8843  -1.6952   6.7681   9.8341
    10.0353  10.6846  13.9615  14.7587

          k = 0.0833-0.0481 0.5608 (  2790 PWs)   bands (ev):

   -23.1759  -8.0630  -4.7618  -4.5610  -3.1374  -1.5198   4.6760   7.6511
    11.1741  12.0988  12.6686  13.5729

          k = 0.2500 0.4330 0.1122 (  2812 PWs)   bands (ev):

   -23.6338  -8.1594  -6.6573  -4.0873  -2.5799  -2.1543   9.4705  10.6502
    11.0457  12.9562  13.6119  15.5169

          k = 0.2500 0.4330 0.3365 (  2817 PWs)   bands (ev):

   -23.3536  -7.4332  -6.1113  -5.4755  -2.6324  -2.0984   7.6132   8.3438
    10.4541  12.8505  14.0728  14.9794

          k = 0.2500 0.4330 0.5608 (  2818 PWs)   bands (ev):

   -23.0507  -6.9759  -6.1531  -5.3558  -3.1651  -2.0131   5.7960   6.1640
    11.4023  12.6182  14.0526  14.4559

          k = 0.2500 0.6255 0.1122 (  2823 PWs)   bands (ev):

   -23.6160  -8.0568  -7.0705  -4.0566  -2.4926  -1.9425   9.3063  10.6580
    10.9193  13.2142  13.7030  15.7152

          k = 0.2500 0.6255 0.3365 (  2819 PWs)   bands (ev):

   -23.3382  -7.3213  -6.4342  -5.4670  -2.5049  -2.1058   7.9362   8.1006
    10.2787  13.1888  13.8780  15.1139

          k = 0.2500 0.6255 0.5608 (  2828 PWs)   bands (ev):

   -23.0383  -6.8035  -6.1582  -5.6108  -3.0229  -2.2854   5.9957   6.1138
    11.4516  13.0604  13.8911  14.1719

          k = 0.2500-0.3368 0.1122 (  2818 PWs)   bands (ev):

   -23.6644  -8.1744  -6.0753  -4.1757  -2.9407  -2.2529   9.6190  10.6237
    11.1847  12.3994  13.7061  15.3068

          k = 0.2500-0.3368 0.3365 (  2819 PWs)   bands (ev):

   -23.3801  -7.4694  -5.8551  -5.3514  -2.9274  -1.9681   7.2413   8.6180
    10.5001  12.4600  14.2839  14.9428

          k = 0.2500-0.3368 0.5608 (  2814 PWs)   bands (ev):

   -23.0723  -7.2061  -6.0916  -5.0277  -3.3056  -1.6536   5.3777   6.3774
    11.1082  12.4295  14.1883  14.6475

          k = 0.2500-0.1443 0.1122 (  2834 PWs)   bands (ev):

   -23.7297  -7.8621  -5.1572  -4.5761  -3.4603  -2.3621   9.8045   9.9326
    11.4610  11.5598  14.0280  15.2481

          k = 0.2500-0.1443 0.3365 (  2819 PWs)   bands (ev):

   -23.4366  -7.3284  -5.7895  -4.9079  -3.3019  -1.8234   6.8078   9.1047
    10.1455  12.0627  13.9712  15.2400

          k = 0.2500-0.1443 0.5608 (  2804 PWs)   bands (ev):

   -23.1183  -7.6249  -5.7078  -4.6495  -3.3240  -1.2831   4.8248   6.8337
    10.7065  12.4548  13.9429  14.3899

          k = 0.4167 0.7217 0.1122 (  2824 PWs)   bands (ev):

   -23.6224  -8.3147  -6.4980  -4.0741  -3.0765  -1.7106   9.6167  10.6589
    11.0016  12.6892  13.9795  15.4610

          k = 0.4167 0.7217 0.3365 (  2827 PWs)   bands (ev):

   -23.3438  -7.5456  -6.0066  -5.4448  -2.9193  -1.9133   7.8236   8.1725
    10.4986  12.7620  14.1726  15.0556

          k = 0.4167 0.7217 0.5608 (  2818 PWs)   bands (ev):

   -23.0428  -6.8562  -6.3191  -5.2741  -3.3363  -1.9779   5.7293   6.2648
    11.1137  13.0868  14.1685  14.3226

          k = 0.4167-0.2406 0.1122 (  2824 PWs)   bands (ev):

   -23.6465  -8.4612  -5.2884  -4.5305  -3.7813  -1.6424  10.1086  10.6456
    11.0371  11.9146  14.4971  14.8874

          k = 0.4167-0.2406 0.3365 (  2817 PWs)   bands (ev):

   -23.3646  -7.6639  -5.7562  -5.0210  -3.5730  -1.6618   7.3114   8.4981
    10.5495  12.3079  14.7752  15.0016

          k = 0.4167-0.2406 0.5608 (  2810 PWs)   bands (ev):

   -23.0597  -7.0043  -6.4214  -4.7387  -3.7318  -1.4864   5.2664   6.4305
    10.5508  12.9985  14.5903  14.7105

          k =-0.0833-0.3368 0.1122 (  2825 PWs)   bands (ev):

   -23.6995  -8.0858  -5.4602  -4.1894  -3.4164  -2.4399  10.0602  10.4732
    11.5597  11.6183  13.7854  14.7824

          k =-0.0833-0.3368 0.3365 (  2820 PWs)   bands (ev):

   -23.4104  -7.5252  -5.5470  -5.1127  -2.7028  -2.6184   7.3642   8.8902
    10.9118  11.9966  13.6736  14.5437

          k =-0.0833-0.3368 0.5608 (  2810 PWs)   bands (ev):

   -23.0970  -7.4934  -5.8384  -4.7678  -3.1937  -1.7212   5.3146   6.5320
    11.3466  12.1222  13.6413  14.5340

          k =-0.0833-0.5292 0.1122 (  2821 PWs)   bands (ev):

   -23.6335  -8.4766  -5.7665  -4.1102  -3.7326  -1.6581  10.2053  10.6265
    11.1879  12.0377  14.1690  14.9687

          k =-0.0833-0.5292 0.3365 (  2819 PWs)   bands (ev):

   -23.3534  -7.7160  -5.6011  -5.2824  -3.3140  -1.9340   7.9321   8.1676
    10.8012  12.4587  14.2421  14.7199

          k =-0.0833-0.5292 0.5608 (  2816 PWs)   bands (ev):

   -23.0506  -7.0095  -6.3166  -4.9176  -3.5832  -1.7937   5.6163   6.2928
    10.8316  13.1897  14.2181  14.4252

          k =-0.0833 0.4330 0.1122 (  2826 PWs)   bands (ev):

   -23.6579  -8.3258  -5.6760  -4.3022  -3.4966  -1.8514   9.8292  10.6191
    11.0745  12.1327  14.1316  15.1628

          k =-0.0833 0.4330 0.3365 (  2823 PWs)   bands (ev):

   -23.3744  -7.5568  -5.8364  -5.1589  -3.3158  -1.7180   7.1854   8.5811
    10.4637  12.3653  14.5818  15.1025

          k =-0.0833 0.4330 0.5608 (  2806 PWs)   bands (ev):

   -23.0676  -7.1152  -6.2775  -4.8511  -3.5464  -1.4939   5.2499   6.4289
    10.7044  12.7801  14.4625  14.7073

          k =-0.0833 0.2406 0.1122 (  2825 PWs)   bands (ev):

   -23.7471  -7.6956  -5.2749  -4.4448  -3.4427  -2.4880   9.6399  10.0134
    11.1601  11.6941  14.0724  15.2132

          k =-0.0833 0.2406 0.3365 (  2814 PWs)   bands (ev):

   -23.4516  -7.2990  -5.6605  -4.9467  -3.2115  -1.9683   6.8492   9.2548
    10.2143  11.8119  13.7773  15.0856

          k =-0.0833 0.2406 0.5608 (  2803 PWs)   bands (ev):

   -23.1305  -7.7353  -5.5050  -4.6709  -3.1889  -1.3904   4.8277   6.9650
    10.9510  12.2425  13.5104  14.3324

          k =-0.0833 0.0481 0.1122 (  2815 PWs)   bands (ev):

   -23.8109  -6.9381  -5.0255  -4.7591  -4.1692  -2.0685   9.5196   9.5252
     9.8948  12.0633  14.9604  15.0771

          k =-0.0833 0.0481 0.3365 (  2817 PWs)   bands (ev):

   -23.5071  -7.1917  -5.0838  -4.8021  -3.8831  -1.7260   6.7962   9.7966
    10.3397  10.4279  13.9444  14.7177

          k =-0.0833 0.0481 0.5608 (  2790 PWs)   bands (ev):

   -23.1759  -8.0645  -4.7574  -4.5641  -3.1129  -1.5559   4.6938   7.6520
    11.3536  11.9425  12.5467  13.6473

          k =-0.2500-0.6255 0.1122 (  2823 PWs)   bands (ev):

   -23.6160  -8.0534  -7.0748  -4.0597  -2.5068  -1.9196   9.2785  10.7079
    10.8704  13.1765  13.7532  15.7389

          k =-0.2500-0.6255 0.3365 (  2819 PWs)   bands (ev):

   -23.3382  -7.3040  -6.4621  -5.4616  -2.5608  -2.0333   7.8235   8.1817
    10.2654  13.1199  13.9732  15.1584

          k =-0.2500-0.6255 0.5608 (  2828 PWs)   bands (ev):

   -23.0383  -6.7821  -6.1953  -5.5982  -3.0460  -2.2519   5.9224   6.1748
    11.4177  13.0487  13.9927  14.1415

          k =-0.2500 0.3368 0.1122 (  2818 PWs)   bands (ev):

   -23.6644  -8.1861  -6.0571  -4.1322  -2.9047  -2.3663   9.7835  10.5770
    11.3219  12.3914  13.5584  15.1504

          k =-0.2500 0.3368 0.3365 (  2819 PWs)   bands (ev):

   -23.3800  -7.5248  -5.6533  -5.4550  -2.6771  -2.3359   7.4680   8.5851
    10.6932  12.4876  14.0117  14.6395

          k =-0.2500 0.3368 0.5608 (  2814 PWs)   bands (ev):

   -23.0723  -7.2481  -6.0222  -5.0368  -3.2260  -1.8079   5.5473   6.2991
    11.3767  12.2582  14.0400  14.5276

          k =-0.2500 0.1443 0.1122 (  2834 PWs)   bands (ev):

   -23.7297  -7.8928  -5.1621  -4.2510  -3.6689  -2.5050  10.2055  10.2242
    10.9495  11.7753  14.1469  14.5957

          k =-0.2500 0.1443 0.3365 (  2819 PWs)   bands (ev):

   -23.4365  -7.4525  -5.5228  -4.9186  -2.8972  -2.5410   7.2256   9.1518
    11.0469  11.4362  13.4905  14.6375

          k =-0.2500 0.1443 0.5608 (  2804 PWs)   bands (ev):

   -23.1183  -7.6681  -5.6298  -4.6554  -3.1019  -1.6913   5.1241   6.7818
    11.4615  11.9985  13.1457  14.5034

          k =-0.4167 0.2406 0.1122 (  2824 PWs)   bands (ev):

   -23.6465  -8.4787  -5.2907  -4.2001  -4.0395  -1.7532  10.4938  10.8424
    11.2717  11.5383  14.3216  14.5045

          k =-0.4167 0.2406 0.3365 (  2817 PWs)   bands (ev):

   -23.3646  -7.7497  -5.5401  -5.0261  -3.4607  -2.0552   7.9325   8.2874
    11.0006  12.3256  14.1236  14.4132

          k =-0.4167 0.2406 0.5608 (  2810 PWs)   bands (ev):

   -23.0597  -7.1470  -6.2353  -4.7415  -3.6174  -1.7603   5.6164   6.2733
    10.7896  13.1513  14.2343  14.2913

!    total energy              =    -139.45592305 Ry
     Harris-Foulkes estimate   =    -139.45592336 Ry
     estimated scf accuracy    <       0.00000060 Ry

     The total energy is the sum of the following terms:

     one-electron contribution =      -0.91007595 Ry
     hartree contribution      =      19.61011364 Ry
     xc contribution           =     -27.03793759 Ry
     ewald contribution        =    -131.11802315 Ry

     convergence has been achieved in  10 iterations

     Forces acting on atoms (Ry/au):

     atom    1 type  3   force =     0.00000000    0.00000000   -0.00009174
     atom    2 type  2   force =     0.00000000    0.00000000    0.02177103
     atom    3 type  2   force =     0.00000000   -0.00000000   -0.02176956
     atom    4 type  1   force =     0.00000000    0.00000000   -0.01389403
     atom    5 type  1   force =     0.00000000   -0.00000000    0.01398431

     Total force =     0.036558     Total SCF correction =     0.000129


     entering subroutine stress ...

          total   stress  (Ry/bohr**3)                   (kbar)     P= 1764.71
   0.01299244   0.00000000   0.00000000       1911.25      0.00      0.00
   0.00000000   0.01299244  -0.00000000          0.00   1911.25     -0.00
   0.00000000   0.00000000   0.01000398          0.00      0.00   1471.64


     BFGS Geometry Optimization

     number of scf cycles    =   1
     number of bfgs steps    =   0

     enthalpy new            =    -138.4353102269 Ry

     new trust radius        =       0.4439412484 bohr
     new conv_thr            =       0.0000010000 Ry

     new unit-cell volume =    251.34018 a.u.^3 (    37.24477 Ang^3 )

CELL_PARAMETERS (alat=  6.37640000)
   1.171859069   0.000000000   0.000000000
  -0.585929535   1.014859724   0.000000000
   0.000000000  -0.000000000   0.815180638

ATOMIC_POSITIONS (crystal)
Ca       0.000000000   0.000000000  -0.000019364
O        0.333333333   0.666666667   0.291595307
O        0.666666667   0.333333333   0.707405002
H        0.333333333   0.666666667   0.671067326
H        0.666666667   0.333333333   0.327951730



     Writing output data file CaOH2_ambient.save
     NEW-OLD atomic charge density approx. for the potential
     NEW k-points:
        k(    1) = (   0.0711121   0.1231697   0.1022268), wk =   0.0370370
        k(    2) = (   0.0711121   0.1231697   0.3066805), wk =   0.0370370
        k(    3) = (   0.0711121   0.1231697   0.5111342), wk =   0.0370370
        k(    4) = (   0.0711121   0.2873960   0.1022268), wk =   0.0370370
        k(    5) = (   0.0711121   0.2873960   0.3066805), wk =   0.0370370
        k(    6) = (   0.0711121   0.2873960   0.5111342), wk =   0.0370370
        k(    7) = (   0.0711121   0.4516223   0.1022268), wk =   0.0370370
        k(    8) = (   0.0711121   0.4516223   0.3066805), wk =   0.0370370
        k(    9) = (   0.0711121   0.4516223   0.5111342), wk =   0.0370370
        k(   10) = (   0.0711121  -0.3695092   0.1022268), wk =   0.0370370
        k(   11) = (   0.0711121  -0.3695092   0.3066805), wk =   0.0370370
        k(   12) = (   0.0711121  -0.3695092   0.5111342), wk =   0.0370370
        k(   13) = (   0.0711121  -0.2052829   0.1022268), wk =   0.0370370
        k(   14) = (   0.0711121  -0.2052829   0.3066805), wk =   0.0370370
        k(   15) = (   0.0711121  -0.2052829   0.5111342), wk =   0.0370370
        k(   16) = (   0.0711121  -0.0410566   0.1022268), wk =   0.0185185
        k(   17) = (   0.0711121  -0.0410566   0.3066805), wk =   0.0185185
        k(   18) = (   0.0711121  -0.0410566   0.5111342), wk =   0.0185185
        k(   19) = (   0.2133362   0.3695092   0.1022268), wk =   0.0370370
        k(   20) = (   0.2133362   0.3695092   0.3066805), wk =   0.0370370
        k(   21) = (   0.2133362   0.3695092   0.5111342), wk =   0.0370370
        k(   22) = (   0.2133362   0.5337355   0.1022268), wk =   0.0370370
        k(   23) = (   0.2133362   0.5337355   0.3066805), wk =   0.0370370
        k(   24) = (   0.2133362   0.5337355   0.5111342), wk =   0.0370370
        k(   25) = (   0.2133362  -0.2873960   0.1022268), wk =   0.0370370
        k(   26) = (   0.2133362  -0.2873960   0.3066805), wk =   0.0370370
        k(   27) = (   0.2133362  -0.2873960   0.5111342), wk =   0.0370370
        k(   28) = (   0.2133362  -0.1231697   0.1022268), wk =   0.0185185
        k(   29) = (   0.2133362  -0.1231697   0.3066805), wk =   0.0185185
        k(   30) = (   0.2133362  -0.1231697   0.5111342), wk =   0.0185185
        k(   31) = (   0.3555604   0.6158487   0.1022268), wk =   0.0370370
        k(   32) = (   0.3555604   0.6158487   0.3066805), wk =   0.0370370
        k(   33) = (   0.3555604   0.6158487   0.5111342), wk =   0.0370370
        k(   34) = (   0.3555604  -0.2052829   0.1022268), wk =   0.0185185
        k(   35) = (   0.3555604  -0.2052829   0.3066805), wk =   0.0185185
        k(   36) = (   0.3555604  -0.2052829   0.5111342), wk =   0.0185185
        k(   37) = (  -0.0711121  -0.2873960   0.1022268), wk =   0.0370370
        k(   38) = (  -0.0711121  -0.2873960   0.3066805), wk =   0.0370370
        k(   39) = (  -0.0711121  -0.2873960   0.5111342), wk =   0.0370370
        k(   40) = (  -0.0711121  -0.4516223   0.1022268), wk =   0.0370370
        k(   41) = (  -0.0711121  -0.4516223   0.3066805), wk =   0.0370370
        k(   42) = (  -0.0711121  -0.4516223   0.5111342), wk =   0.0370370
        k(   43) = (  -0.0711121   0.3695092   0.1022268), wk =   0.0370370
        k(   44) = (  -0.0711121   0.3695092   0.3066805), wk =   0.0370370
        k(   45) = (  -0.0711121   0.3695092   0.5111342), wk =   0.0370370
        k(   46) = (  -0.0711121   0.2052829   0.1022268), wk =   0.0370370
        k(   47) = (  -0.0711121   0.2052829   0.3066805), wk =   0.0370370
        k(   48) = (  -0.0711121   0.2052829   0.5111342), wk =   0.0370370
        k(   49) = (  -0.0711121   0.0410566   0.1022268), wk =   0.0185185
        k(   50) = (  -0.0711121   0.0410566   0.3066805), wk =   0.0185185
        k(   51) = (  -0.0711121   0.0410566   0.5111342), wk =   0.0185185
        k(   52) = (  -0.2133362  -0.5337355   0.1022268), wk =   0.0370370
        k(   53) = (  -0.2133362  -0.5337355   0.3066805), wk =   0.0370370
        k(   54) = (  -0.2133362  -0.5337355   0.5111342), wk =   0.0370370
        k(   55) = (  -0.2133362   0.2873960   0.1022268), wk =   0.0370370
        k(   56) = (  -0.2133362   0.2873960   0.3066805), wk =   0.0370370
        k(   57) = (  -0.2133362   0.2873960   0.5111342), wk =   0.0370370
        k(   58) = (  -0.2133362   0.1231697   0.1022268), wk =   0.0185185
        k(   59) = (  -0.2133362   0.1231697   0.3066805), wk =   0.0185185
        k(   60) = (  -0.2133362   0.1231697   0.5111342), wk =   0.0185185
        k(   61) = (  -0.3555604   0.2052829   0.1022268), wk =   0.0185185
        k(   62) = (  -0.3555604   0.2052829   0.3066805), wk =   0.0185185
        k(   63) = (  -0.3555604   0.2052829   0.5111342), wk =   0.0185185
     extrapolated charge   31.39818, renormalised to   24.00000

     total cpu time spent up to now is      161.9 secs

     per-process dynamical memory:    13.0 Mb

     Self-consistent Calculation

     iteration #  1     ecut=   100.00 Ry     beta=0.30
     Davidson diagonalization with overlap
     ethr =  1.00E-06,  avg # of iterations = 10.2

     total cpu time spent up to now is      182.6 secs

     total energy              =    -136.32309360 Ry
     Harris-Foulkes estimate   =    -134.98569179 Ry
     estimated scf accuracy    <       3.68421217 Ry

     iteration #  2     ecut=   100.00 Ry     beta=0.30
     Davidson diagonalization with overlap
     ethr =  1.00E-02,  avg # of iterations =  3.3

     total cpu time spent up to now is      193.3 secs

     total energy              =    -140.08838588 Ry
     Harris-Foulkes estimate   =    -140.28864233 Ry
     estimated scf accuracy    <       1.35489009 Ry

     iteration #  3     ecut=   100.00 Ry     beta=0.30
     Davidson diagonalization with overlap
     ethr =  5.65E-03,  avg # of iterations =  1.0

     total cpu time spent up to now is      199.4 secs

     total energy              =    -139.84534917 Ry
     Harris-Foulkes estimate   =    -140.10690560 Ry
     estimated scf accuracy    <       0.79597210 Ry

     iteration #  4     ecut=   100.00 Ry     beta=0.30
     Davidson diagonalization with overlap
     ethr =  3.32E-03,  avg # of iterations =  2.0

     total cpu time spent up to now is      206.6 secs

     total energy              =    -139.89698339 Ry
     Harris-Foulkes estimate   =    -139.90425702 Ry
     estimated scf accuracy    <       0.12479679 Ry

     iteration #  5     ecut=   100.00 Ry     beta=0.30
     Davidson diagonalization with overlap
     ethr =  5.20E-04,  avg # of iterations =  1.0

     total cpu time spent up to now is      213.4 secs

     total energy              =    -139.85777652 Ry
     Harris-Foulkes estimate   =    -139.89793436 Ry
     estimated scf accuracy    <       0.10527899 Ry

     iteration #  6     ecut=   100.00 Ry     beta=0.30
     Davidson diagonalization with overlap
     ethr =  4.39E-04,  avg # of iterations =  2.0

     total cpu time spent up to now is      220.9 secs

     total energy              =    -139.86463912 Ry
     Harris-Foulkes estimate   =    -139.86853973 Ry
     estimated scf accuracy    <       0.00730244 Ry

     iteration #  7     ecut=   100.00 Ry     beta=0.30
     Davidson diagonalization with overlap
     ethr =  3.04E-05,  avg # of iterations =  2.1

     total cpu time spent up to now is      229.6 secs

     total energy              =    -139.86633998 Ry
     Harris-Foulkes estimate   =    -139.86639521 Ry
     estimated scf accuracy    <       0.00020710 Ry

     iteration #  8     ecut=   100.00 Ry     beta=0.30
     Davidson diagonalization with overlap
     ethr =  8.63E-07,  avg # of iterations =  2.0

     total cpu time spent up to now is      237.1 secs

     total energy              =    -139.86636477 Ry
     Harris-Foulkes estimate   =    -139.86637023 Ry
     estimated scf accuracy    <       0.00002422 Ry

     iteration #  9     ecut=   100.00 Ry     beta=0.30
     Davidson diagonalization with overlap
     ethr =  1.01E-07,  avg # of iterations =  2.1

     total cpu time spent up to now is      244.4 secs

     total energy              =    -139.86636565 Ry
     Harris-Foulkes estimate   =    -139.86636744 Ry
     estimated scf accuracy    <       0.00000300 Ry

     iteration # 10     ecut=   100.00 Ry     beta=0.30
     Davidson diagonalization with overlap
     ethr =  1.25E-08,  avg # of iterations =  3.0

     total cpu time spent up to now is      253.8 secs

     total energy              =    -139.86636688 Ry
     Harris-Foulkes estimate   =    -139.86636739 Ry
     estimated scf accuracy    <       0.00000198 Ry

     iteration # 11     ecut=   100.00 Ry     beta=0.30
     Davidson diagonalization with overlap
     ethr =  8.23E-09,  avg # of iterations =  1.0

     total cpu time spent up to now is      259.9 secs

     End of self-consistent calculation

          k = 0.0711 0.1232 0.1022 (  2820 PWs)   bands (ev):

   -31.0539 -12.4798 -12.3345 -12.1761 -10.0534  -8.2432   4.8466   5.1654
     5.4567   5.8273   7.8563   8.2741

          k = 0.0711 0.1232 0.3067 (  2812 PWs)   bands (ev):

   -30.9365 -12.9350 -12.3213 -12.2388  -9.5130  -7.9570   2.4295   3.9557
     5.6415   6.0174   7.7313   8.2096

          k = 0.0711 0.1232 0.5111 (  2794 PWs)   bands (ev):

   -30.8146 -13.5900 -12.1888 -12.1412  -8.8363  -7.7167   0.7025   2.3063
     6.3667   6.7894   7.3489   7.8650

          k = 0.0711 0.2874 0.1022 (  2825 PWs)   bands (ev):

   -31.0465 -12.7422 -12.3710 -12.1598  -9.5357  -8.5306   4.8274   5.1736
     5.6070   5.9837   7.5116   8.4804

          k = 0.0711 0.2874 0.3067 (  2820 PWs)   bands (ev):

   -30.9303 -12.8850 -12.5171 -12.2670  -9.1996  -8.1634   2.5376   3.6075
     5.5053   6.3636   7.8245   8.4445

          k = 0.0711 0.2874 0.5111 (  2810 PWs)   bands (ev):

   -30.8100 -13.5266 -12.3121 -12.1625  -8.7536  -7.8022   0.8768   1.8991
     6.0879   6.7924   7.8950   8.1059

          k = 0.0711 0.4516 0.1022 (  2821 PWs)   bands (ev):

   -31.0407 -12.8919 -12.3983 -12.1476  -9.0960  -8.8291   4.7851   5.2482
     5.4474   6.0163   7.7567   8.5668

          k = 0.0711 0.4516 0.3067 (  2819 PWs)   bands (ev):

   -30.9253 -12.8394 -12.6508 -12.2890  -8.8886  -8.4189   2.7939   3.2852
     5.4878   6.3999   7.9803   8.4587

          k = 0.0711 0.4516 0.5111 (  2816 PWs)   bands (ev):

   -30.8062 -13.4798 -12.3976 -12.1786  -8.6194  -7.9613   1.1839   1.5118
     6.0037   6.9924   7.9398   8.1194

          k = 0.0711-0.3695 0.1022 (  2826 PWs)   bands (ev):

   -31.0430 -12.8446 -12.3878 -12.1492  -9.2267  -8.7537   4.9952   5.1181
     5.5620   5.9931   7.5704   8.4267

          k = 0.0711-0.3695 0.3067 (  2823 PWs)   bands (ev):

   -30.9274 -12.8715 -12.5904 -12.2814  -8.8960  -8.4435   2.8086   3.3596
     5.6207   6.4425   7.7760   8.1960

          k = 0.0711-0.3695 0.5111 (  2806 PWs)   bands (ev):

   -30.8071 -13.4982 -12.3671 -12.1728  -8.6143  -7.9652   1.1121   1.6350
     6.1688   6.9154   7.8848   7.9108

          k = 0.0711-0.2053 0.1022 (  2825 PWs)   bands (ev):

   -31.0506 -12.6171 -12.3511 -12.1652  -9.7945  -8.3904   4.9082   5.1820
     5.6547   5.7996   7.6122   8.2757

          k = 0.0711-0.2053 0.3067 (  2814 PWs)   bands (ev):

   -30.9336 -12.9175 -12.4126 -12.2521  -9.3349  -8.0886   2.5154   3.7828
     5.7033   6.1624   7.7271   8.1465

          k = 0.0711-0.2053 0.5111 (  2803 PWs)   bands (ev):

   -30.8125 -13.5613 -12.2474 -12.1511  -8.7782  -7.7780   0.7952   2.1063
     6.3963   6.6592   7.5230   7.9844

          k = 0.0711-0.0411 0.1022 (  2815 PWs)   bands (ev):

   -31.0557 -12.3841 -12.3261 -12.1853 -10.2098  -8.1614   4.8360   5.1361
     5.2927   5.8653   8.0369   8.2853

          k = 0.0711-0.0411 0.3067 (  2817 PWs)   bands (ev):

   -30.9387 -12.9453 -12.2634 -12.2320  -9.6109  -7.8910   2.3978   4.0594
     5.6195   5.8913   7.8012   8.1651

          k = 0.0711-0.0411 0.5111 (  2790 PWs)   bands (ev):

   -30.8159 -13.6065 -12.1537 -12.1359  -8.8620  -7.6929   0.6620   2.4248
     6.4148   6.8044   7.3075   7.6995

          k = 0.2133 0.3695 0.1022 (  2812 PWs)   bands (ev):

   -31.0401 -12.7990 -12.5116 -12.1467  -9.1180  -8.7773   4.5698   5.1536
     5.4668   6.5943   7.2854   8.7963

          k = 0.2133 0.3695 0.3067 (  2817 PWs)   bands (ev):

   -30.9253 -12.8458 -12.5728 -12.3708  -8.8603  -8.4365   2.8268   3.3012
     5.2588   6.8294   7.6226   8.5202

          k = 0.2133 0.3695 0.5111 (  2818 PWs)   bands (ev):

   -30.8064 -13.4806 -12.3517 -12.2290  -8.5483  -8.0359   1.1566   1.5756
     6.1412   6.9817   7.8499   7.9527

          k = 0.2133 0.5337 0.1022 (  2823 PWs)   bands (ev):

   -31.0393 -12.7840 -12.5770 -12.1441  -8.9660  -8.8796   4.4361   5.2132
     5.3877   6.7567   7.2636   8.9152

          k = 0.2133 0.5337 0.3067 (  2819 PWs)   bands (ev):

   -30.9242 -12.8319 -12.5692 -12.4194  -8.7213  -8.5553   2.9682   3.1636
     5.1477   7.0156   7.5107   8.5910

          k = 0.2133 0.5337 0.5111 (  2828 PWs)   bands (ev):

   -30.8059 -13.4680 -12.3503 -12.2589  -8.4376  -8.1556   1.2927   1.4395
     6.1210   7.1891   7.6665   7.9367

          k = 0.2133-0.2874 0.1022 (  2818 PWs)   bands (ev):

   -31.0430 -12.7886 -12.4321 -12.1521  -9.3214  -8.6558   4.7432   5.1267
     5.5428   6.2870   7.3881   8.6252

          k = 0.2133-0.2874 0.3067 (  2819 PWs)   bands (ev):

   -30.9276 -12.8652 -12.5574 -12.3116  -9.0360  -8.2921   2.6651   3.4601
     5.4074   6.5614   7.7777   8.4501

          k = 0.2133-0.2874 0.5111 (  2814 PWs)   bands (ev):

   -30.8080 -13.5020 -12.3397 -12.1916  -8.6669  -7.9024   1.0048   1.7365
     6.1273   6.8268   7.9480   8.0297

          k = 0.2133-0.1232 0.1022 (  2834 PWs)   bands (ev):

   -31.0497 -12.6721 -12.3457 -12.1664  -9.7117  -8.4285   4.8260   5.1956
     5.6682   5.8231   7.5708   8.4211

          k = 0.2133-0.1232 0.3067 (  2819 PWs)   bands (ev):

   -30.9325 -12.9021 -12.4617 -12.2487  -9.3169  -8.0777   2.4714   3.7251
     5.5251   6.2896   7.7584   8.4476

          k = 0.2133-0.1232 0.5111 (  2804 PWs)   bands (ev):

   -30.8114 -13.5481 -12.2760 -12.1497  -8.7974  -7.7521   0.7969   2.0362
     6.1005   6.8031   7.7857   8.0738

          k = 0.3556 0.6158 0.1022 (  2824 PWs)   bands (ev):

   -31.0399 -12.8520 -12.4813 -12.1451  -8.9751  -8.9040   4.5896   5.2028
     5.4209   6.4040   7.5140   8.7715

          k = 0.3556 0.6158 0.3067 (  2827 PWs)   bands (ev):

   -30.9250 -12.8353 -12.6204 -12.3488  -8.7771  -8.5138   2.9111   3.1993
     5.2916   6.7182   7.7371   8.5293

          k = 0.3556 0.6158 0.5111 (  2818 PWs)   bands (ev):

   -30.8056 -13.4724 -12.3810 -12.2155  -8.5250  -8.0640   1.2823   1.4337
     6.0777   7.0838   7.8052   8.0071

          k = 0.3556-0.2053 0.1022 (  2824 PWs)   bands (ev):

   -31.0420 -12.8851 -12.3655 -12.1508  -9.2136  -8.7464   4.8557   5.3094
     5.4682   5.8311   7.8393   8.4557

          k = 0.3556-0.2053 0.3067 (  2817 PWs)   bands (ev):

   -30.9261 -12.8463 -12.6434 -12.2657  -8.9870  -8.3317   2.6932   3.3703
     5.5732   6.2602   8.0799   8.4448

          k = 0.3556-0.2053 0.5111 (  2810 PWs)   bands (ev):

   -30.8065 -13.4887 -12.3914 -12.1637  -8.6774  -7.8948   1.0813   1.6108
     5.9705   6.9313   8.0011   8.1873

          k =-0.0711-0.2874 0.1022 (  2825 PWs)   bands (ev):

   -31.0465 -12.7480 -12.3706 -12.1558  -9.5010  -8.5706   5.0004   5.1350
     5.6415   5.9290   7.4807   8.3332

          k =-0.0711-0.2874 0.3067 (  2820 PWs)   bands (ev):

   -30.9303 -12.8957 -12.5093 -12.2677  -9.1142  -8.2632   2.6521   3.5740
     5.6936   6.3356   7.7507   8.0982

          k =-0.0711-0.2874 0.5111 (  2810 PWs)   bands (ev):

   -30.8100 -13.5279 -12.3126 -12.1627  -8.6958  -7.8711   0.9380   1.8706
     6.3181   6.7150   7.7283   7.9767

          k =-0.0711-0.4516 0.1022 (  2821 PWs)   bands (ev):

   -31.0407 -12.8939 -12.3980 -12.1463  -9.0036  -8.9240   4.8583   5.2068
     5.4844   6.0016   7.7218   8.5206

          k =-0.0711-0.4516 0.3067 (  2819 PWs)   bands (ev):

   -30.9253 -12.8485 -12.6429 -12.2893  -8.7832  -8.5311   2.8974   3.2199
     5.5390   6.4378   7.8820   8.3473

          k =-0.0711-0.4516 0.5111 (  2816 PWs)   bands (ev):

   -30.8062 -13.4805 -12.3978 -12.1786  -8.5808  -8.0051   1.2725   1.4378
     6.0563   7.0393   7.8489   8.0439

          k =-0.0711 0.3695 0.1022 (  2826 PWs)   bands (ev):

   -31.0430 -12.8394 -12.3883 -12.1525  -9.2936  -8.6809   4.7929   5.2148
     5.4986   6.0332   7.6435   8.5469

          k =-0.0711 0.3695 0.3067 (  2823 PWs)   bands (ev):

   -30.9274 -12.8559 -12.6033 -12.2808  -9.0399  -8.2838   2.6471   3.4341
     5.4793   6.3818   7.9638   8.4878

          k =-0.0711 0.3695 0.5111 (  2806 PWs)   bands (ev):

   -30.8071 -13.4968 -12.3666 -12.1726  -8.6896  -7.8782   1.0173   1.6953
     6.0154   6.8804   7.9996   8.1394

          k =-0.0711 0.2053 0.1022 (  2825 PWs)   bands (ev):

   -31.0506 -12.6135 -12.3512 -12.1679  -9.8057  -8.3769   4.8423   5.1572
     5.7193   5.7836   7.5785   8.3846

          k =-0.0711 0.2053 0.3067 (  2814 PWs)   bands (ev):

   -30.9336 -12.9137 -12.4151 -12.2516  -9.3642  -8.0527   2.4701   3.7908
     5.5606   6.2548   7.7002   8.3453

          k =-0.0711 0.2053 0.5111 (  2803 PWs)   bands (ev):

   -30.8125 -13.5608 -12.2471 -12.1509  -8.8015  -7.7495   0.7720   2.1142
     6.2111   6.7698   7.6363   8.0104

          k =-0.0711 0.0411 0.1022 (  2815 PWs)   bands (ev):

   -31.0557 -12.3852 -12.3263 -12.1841 -10.2086  -8.1630   4.8490   5.1896
     5.2276   5.8691   8.1344   8.1757

          k =-0.0711 0.0411 0.3067 (  2817 PWs)   bands (ev):

   -30.9387 -12.9457 -12.2629 -12.2324  -9.6074  -7.8955   2.4040   4.0587
     5.7101   5.8013   7.8406   8.1069

          k =-0.0711 0.0411 0.5111 (  2790 PWs)   bands (ev):

   -30.8159 -13.6066 -12.1536 -12.1361  -8.8588  -7.6969   0.6651   2.4242
     6.4839   6.7475   7.2732   7.7118

          k =-0.2133-0.5337 0.1022 (  2823 PWs)   bands (ev):

   -31.0393 -12.7833 -12.5775 -12.1442  -8.9886  -8.8567   4.4285   5.2267
     5.3747   6.7464   7.2786   8.9216

          k =-0.2133-0.5337 0.3067 (  2819 PWs)   bands (ev):

   -30.9242 -12.8306 -12.5707 -12.4190  -8.7514  -8.5242   2.9399   3.1861
     5.1427   6.9843   7.5501   8.6062

          k =-0.2133-0.5337 0.5111 (  2828 PWs)   bands (ev):

   -30.8059 -13.4679 -12.3502 -12.2589  -8.4504  -8.1421   1.2731   1.4568
     6.1119   7.1689   7.7065   7.9363

          k =-0.2133 0.2874 0.1022 (  2818 PWs)   bands (ev):

   -31.0430 -12.7914 -12.4313 -12.1508  -9.2970  -8.6828   4.8257   5.0759
     5.5732   6.2917   7.3437   8.5744

          k =-0.2133 0.2874 0.3067 (  2819 PWs)   bands (ev):

   -30.9276 -12.8713 -12.5522 -12.3121  -8.9814  -8.3536   2.7301   3.4327
     5.4594   6.6115   7.6754   8.3305

          k =-0.2133 0.2874 0.5111 (  2814 PWs)   bands (ev):

   -30.8080 -13.5026 -12.3400 -12.1916  -8.6342  -7.9402   1.0410   1.7152
     6.2115   6.8188   7.8971   7.9384

          k =-0.2133 0.1232 0.1022 (  2834 PWs)   bands (ev):

   -31.0498 -12.6791 -12.3461 -12.1609  -9.6826  -8.4630   4.9606   5.3057
     5.5538   5.7994   7.6148   8.1969

          k =-0.2133 0.1232 0.3067 (  2819 PWs)   bands (ev):

   -30.9325 -12.9117 -12.4553 -12.2495  -9.2422  -8.1678   2.5810   3.7018
     5.8645   6.0845   7.8246   7.9672

          k =-0.2133 0.1232 0.5111 (  2804 PWs)   bands (ev):

   -30.8114 -13.5494 -12.2766 -12.1502  -8.7414  -7.8201   0.8536   2.0146
     6.4486   6.6268   7.5496   7.9873

          k =-0.3556 0.2053 0.1022 (  2824 PWs)   bands (ev):

   -31.0420 -12.8894 -12.3656 -12.1477  -9.1218  -8.8436   4.9982   5.3651
     5.4530   5.7575   7.7852   8.3421

          k =-0.3556 0.2053 0.3067 (  2817 PWs)   bands (ev):

   -30.9261 -12.8635 -12.6290 -12.2660  -8.8157  -8.5177   2.8684   3.2764
     5.7255   6.2807   7.9407   8.1524

          k =-0.3556 0.2053 0.5111 (  2810 PWs)   bands (ev):

   -30.8066 -13.4900 -12.3918 -12.1639  -8.6047  -7.9785   1.1985   1.5253
     6.0884   7.0042   7.8665   7.9862

!    total energy              =    -139.86636652 Ry
     Harris-Foulkes estimate   =    -139.86636696 Ry
     estimated scf accuracy    <       0.00000058 Ry

     The total energy is the sum of the following terms:

     one-electron contribution =     -25.80825949 Ry
     hartree contribution      =      26.06528042 Ry
     xc contribution           =     -26.07332528 Ry
     ewald contribution        =    -114.05006217 Ry

     convergence has been achieved in  11 iterations

     Forces acting on atoms (Ry/au):

     atom    1 type  3   force =     0.00000000    0.00000000   -0.00003891
     atom    2 type  2   force =    -0.00000000    0.00000000    0.04348591
     atom    3 type  2   force =     0.00000000    0.00000000   -0.04344733
     atom    4 type  1   force =     0.00000000   -0.00000000   -0.07010629
     atom    5 type  1   force =    -0.00000000   -0.00000000    0.07010662

     Total force =     0.116656     Total SCF correction =     0.000140


     entering subroutine stress ...

          total   stress  (Ry/bohr**3)                   (kbar)     P=   75.85
   0.00020195  -0.00000000  -0.00000000         29.71     -0.00     -0.00
  -0.00000000   0.00020195  -0.00000000         -0.00     29.71     -0.00
   0.00000000  -0.00000000   0.00114304          0.00     -0.00    168.15


     number of scf cycles    =   2
     number of bfgs steps    =   1

     enthalpy old            =    -138.4353102269 Ry
     enthalpy new            =    -138.3286480410 Ry

     CASE: enthalpy_new > enthalpy_old

     new trust radius        =       0.1886212370 bohr
     new conv_thr            =       0.0000010000 Ry

     new unit-cell volume =    198.41057 a.u.^3 (    29.40141 Ang^3 )

CELL_PARAMETERS (alat=  6.37640000)
   1.069711596   0.000000000   0.000000000
  -0.534855798   0.926397417   0.000000000
   0.000000000  -0.000000000   0.772278801

ATOMIC_POSITIONS (crystal)
Ca       0.000000000   0.000000000  -0.000007855
O        0.333333333   0.666666667   0.288864005
O        0.666666667   0.333333333   0.710136120
H        0.333333333   0.666666667   0.672810412
H        0.666666667   0.333333333   0.326197317



     Writing output data file CaOH2_ambient.save
     NEW-OLD atomic charge density approx. for the potential
     NEW k-points:
        k(    1) = (   0.0779026   0.1349313   0.1079058), wk =   0.0370370
        k(    2) = (   0.0779026   0.1349313   0.3237173), wk =   0.0370370
        k(    3) = (   0.0779026   0.1349313   0.5395288), wk =   0.0370370
        k(    4) = (   0.0779026   0.3148397   0.1079058), wk =   0.0370370
        k(    5) = (   0.0779026   0.3148397   0.3237173), wk =   0.0370370
        k(    6) = (   0.0779026   0.3148397   0.5395288), wk =   0.0370370
        k(    7) = (   0.0779026   0.4947481   0.1079058), wk =   0.0370370
        k(    8) = (   0.0779026   0.4947481   0.3237173), wk =   0.0370370
        k(    9) = (   0.0779026   0.4947481   0.5395288), wk =   0.0370370
        k(   10) = (   0.0779026  -0.4047939   0.1079058), wk =   0.0370370
        k(   11) = (   0.0779026  -0.4047939   0.3237173), wk =   0.0370370
        k(   12) = (   0.0779026  -0.4047939   0.5395288), wk =   0.0370370
        k(   13) = (   0.0779026  -0.2248855   0.1079058), wk =   0.0370370
        k(   14) = (   0.0779026  -0.2248855   0.3237173), wk =   0.0370370
        k(   15) = (   0.0779026  -0.2248855   0.5395288), wk =   0.0370370
        k(   16) = (   0.0779026  -0.0449771   0.1079058), wk =   0.0185185
        k(   17) = (   0.0779026  -0.0449771   0.3237173), wk =   0.0185185
        k(   18) = (   0.0779026  -0.0449771   0.5395288), wk =   0.0185185
        k(   19) = (   0.2337079   0.4047939   0.1079058), wk =   0.0370370
        k(   20) = (   0.2337079   0.4047939   0.3237173), wk =   0.0370370
        k(   21) = (   0.2337079   0.4047939   0.5395288), wk =   0.0370370
        k(   22) = (   0.2337079   0.5847023   0.1079058), wk =   0.0370370
        k(   23) = (   0.2337079   0.5847023   0.3237173), wk =   0.0370370
        k(   24) = (   0.2337079   0.5847023   0.5395288), wk =   0.0370370
        k(   25) = (   0.2337079  -0.3148397   0.1079058), wk =   0.0370370
        k(   26) = (   0.2337079  -0.3148397   0.3237173), wk =   0.0370370
        k(   27) = (   0.2337079  -0.3148397   0.5395288), wk =   0.0370370
        k(   28) = (   0.2337079  -0.1349313   0.1079058), wk =   0.0185185
        k(   29) = (   0.2337079  -0.1349313   0.3237173), wk =   0.0185185
        k(   30) = (   0.2337079  -0.1349313   0.5395288), wk =   0.0185185
        k(   31) = (   0.3895131   0.6746565   0.1079058), wk =   0.0370370
        k(   32) = (   0.3895131   0.6746565   0.3237173), wk =   0.0370370
        k(   33) = (   0.3895131   0.6746565   0.5395288), wk =   0.0370370
        k(   34) = (   0.3895131  -0.2248855   0.1079058), wk =   0.0185185
        k(   35) = (   0.3895131  -0.2248855   0.3237173), wk =   0.0185185
        k(   36) = (   0.3895131  -0.2248855   0.5395288), wk =   0.0185185
        k(   37) = (  -0.0779026  -0.3148397   0.1079058), wk =   0.0370370
        k(   38) = (  -0.0779026  -0.3148397   0.3237173), wk =   0.0370370
        k(   39) = (  -0.0779026  -0.3148397   0.5395288), wk =   0.0370370
        k(   40) = (  -0.0779026  -0.4947481   0.1079058), wk =   0.0370370
        k(   41) = (  -0.0779026  -0.4947481   0.3237173), wk =   0.0370370
        k(   42) = (  -0.0779026  -0.4947481   0.5395288), wk =   0.0370370
        k(   43) = (  -0.0779026   0.4047939   0.1079058), wk =   0.0370370
        k(   44) = (  -0.0779026   0.4047939   0.3237173), wk =   0.0370370
        k(   45) = (  -0.0779026   0.4047939   0.5395288), wk =   0.0370370
        k(   46) = (  -0.0779026   0.2248855   0.1079058), wk =   0.0370370
        k(   47) = (  -0.0779026   0.2248855   0.3237173), wk =   0.0370370
        k(   48) = (  -0.0779026   0.2248855   0.5395288), wk =   0.0370370
        k(   49) = (  -0.0779026   0.0449771   0.1079058), wk =   0.0185185
        k(   50) = (  -0.0779026   0.0449771   0.3237173), wk =   0.0185185
        k(   51) = (  -0.0779026   0.0449771   0.5395288), wk =   0.0185185
        k(   52) = (  -0.2337079  -0.5847023   0.1079058), wk =   0.0370370
        k(   53) = (  -0.2337079  -0.5847023   0.3237173), wk =   0.0370370
        k(   54) = (  -0.2337079  -0.5847023   0.5395288), wk =   0.0370370
        k(   55) = (  -0.2337079   0.3148397   0.1079058), wk =   0.0370370
        k(   56) = (  -0.2337079   0.3148397   0.3237173), wk =   0.0370370
        k(   57) = (  -0.2337079   0.3148397   0.5395288), wk =   0.0370370
        k(   58) = (  -0.2337079   0.1349313   0.1079058), wk =   0.0185185
        k(   59) = (  -0.2337079   0.1349313   0.3237173), wk =   0.0185185
        k(   60) = (  -0.2337079   0.1349313   0.5395288), wk =   0.0185185
        k(   61) = (  -0.3895131   0.2248855   0.1079058), wk =   0.0185185
        k(   62) = (  -0.3895131   0.2248855   0.3237173), wk =   0.0185185
        k(   63) = (  -0.3895131   0.2248855   0.5395288), wk =   0.0185185
     extrapolated charge   18.13111, renormalised to   24.00000

     total cpu time spent up to now is      318.8 secs

     per-process dynamical memory:    16.4 Mb

     Self-consistent Calculation

     iteration #  1     ecut=   100.00 Ry     beta=0.30
     Davidson diagonalization with overlap
     ethr =  1.00E-06,  avg # of iterations =  6.5

     total cpu time spent up to now is      339.9 secs

     total energy              =    -138.12170738 Ry
     Harris-Foulkes estimate   =    -142.50609542 Ry
     estimated scf accuracy    <       3.17737549 Ry

     iteration #  2     ecut=   100.00 Ry     beta=0.30
     Davidson diagonalization with overlap
     ethr =  1.00E-02,  avg # of iterations =  2.7

     total cpu time spent up to now is      349.2 secs

     total energy              =    -139.75198768 Ry
     Harris-Foulkes estimate   =    -139.77578169 Ry
     estimated scf accuracy    <       0.13308256 Ry

     iteration #  3     ecut=   100.00 Ry     beta=0.30
     Davidson diagonalization with overlap
     ethr =  5.55E-04,  avg # of iterations =  2.0

     total cpu time spent up to now is      355.8 secs

     total energy              =    -139.70791142 Ry
     Harris-Foulkes estimate   =    -139.75893467 Ry
     estimated scf accuracy    <       0.08113185 Ry

     iteration #  4     ecut=   100.00 Ry     beta=0.30
     Davidson diagonalization with overlap
     ethr =  3.38E-04,  avg # of iterations =  2.0

     total cpu time spent up to now is      364.7 secs

     total energy              =    -139.72624962 Ry
     Harris-Foulkes estimate   =    -139.73073613 Ry
     estimated scf accuracy    <       0.01259336 Ry

     iteration #  5     ecut=   100.00 Ry     beta=0.30
     Davidson diagonalization with overlap
     ethr =  5.25E-05,  avg # of iterations =  2.0

     total cpu time spent up to now is      372.5 secs

     total energy              =    -139.72660520 Ry
     Harris-Foulkes estimate   =    -139.72786520 Ry
     estimated scf accuracy    <       0.00219638 Ry

     iteration #  6     ecut=   100.00 Ry     beta=0.30
     Davidson diagonalization with overlap
     ethr =  9.15E-06,  avg # of iterations =  2.0

     total cpu time spent up to now is      381.3 secs

     total energy              =    -139.72701824 Ry
     Harris-Foulkes estimate   =    -139.72736648 Ry
     estimated scf accuracy    <       0.00149503 Ry

     iteration #  7     ecut=   100.00 Ry     beta=0.30
     Davidson diagonalization with overlap
     ethr =  6.23E-06,  avg # of iterations =  1.0

     total cpu time spent up to now is      387.4 secs

     total energy              =    -139.72667817 Ry
     Harris-Foulkes estimate   =    -139.72705955 Ry
     estimated scf accuracy    <       0.00061342 Ry

     iteration #  8     ecut=   100.00 Ry     beta=0.30
     Davidson diagonalization with overlap
     ethr =  2.56E-06,  avg # of iterations =  2.0

     total cpu time spent up to now is      395.5 secs

     total energy              =    -139.72689442 Ry
     Harris-Foulkes estimate   =    -139.72693098 Ry
     estimated scf accuracy    <       0.00012737 Ry

     iteration #  9     ecut=   100.00 Ry     beta=0.30
     Davidson diagonalization with overlap
     ethr =  5.31E-07,  avg # of iterations =  2.0

     total cpu time spent up to now is      402.3 secs

     total energy              =    -139.72688564 Ry
     Harris-Foulkes estimate   =    -139.72690209 Ry
     estimated scf accuracy    <       0.00003497 Ry

     iteration # 10     ecut=   100.00 Ry     beta=0.30
     Davidson diagonalization with overlap
     ethr =  1.46E-07,  avg # of iterations =  2.0

     total cpu time spent up to now is      410.2 secs

     End of self-consistent calculation

          k = 0.0779 0.1349 0.1079 (  2820 PWs)   bands (ev):

   -27.0360  -9.2820  -8.3358  -7.9147  -7.1922  -5.1740   7.4376   7.5108
     8.0039   9.0699  11.3366  11.8387

          k = 0.0779 0.1349 0.3237 (  2812 PWs)   bands (ev):

   -26.8336  -9.4527  -8.4750  -8.1697  -6.6663  -4.8098   4.7189   6.9304
     8.0464   8.6546  10.8902  11.6948

          k = 0.0779 0.1349 0.5395 (  2794 PWs)   bands (ev):

   -26.6189 -10.2686  -8.1945  -8.0003  -6.0058  -4.5080   2.7591   4.9455
     8.9131   9.6277  10.1746  11.0757

          k = 0.0779 0.3148 0.1079 (  2825 PWs)   bands (ev):

   -27.0033  -9.9021  -8.4811  -7.8289  -6.4073  -5.4631   7.4216   7.8416
     8.6650   9.0289  10.8432  11.9886

          k = 0.0779 0.3148 0.3237 (  2820 PWs)   bands (ev):

   -26.8051  -9.4775  -8.8536  -8.2678  -6.2152  -4.9834   4.8393   6.3917
     8.0122   9.3852  11.1489  11.9293

          k = 0.0779 0.3148 0.5395 (  2810 PWs)   bands (ev):

   -26.5956 -10.0180  -8.6237  -8.0716  -6.0469  -4.5066   2.9780   4.3430
     8.5702   9.7401  11.1689  11.4732

          k = 0.0779 0.4947 0.1079 (  2821 PWs)   bands (ev):

   -26.9790 -10.1962  -8.5936  -7.7647  -6.3496  -5.2608   7.4708   8.0973
     8.4277   9.1534  11.1720  11.9927

          k = 0.0779 0.4947 0.3237 (  2819 PWs)   bands (ev):

   -26.7841  -9.6308  -8.8566  -8.3523  -6.0511  -5.0961   5.2530   5.9414
     8.1404   9.4963  11.4074  11.8640

          k = 0.0779 0.4947 0.5395 (  2816 PWs)   bands (ev):

   -26.5783  -9.8129  -8.8897  -8.1286  -6.0197  -4.7077   3.4012   3.8970
     8.4920  10.1492  11.3230  11.4644

          k = 0.0779-0.4048 0.1079 (  2826 PWs)   bands (ev):

   -26.9880 -10.1113  -8.5463  -7.7628  -6.2268  -5.5157   7.7444   7.9344
     8.6530   9.0438  10.8701  11.7780

          k = 0.0779-0.4048 0.3237 (  2823 PWs)   bands (ev):

   -26.7919  -9.6409  -8.7777  -8.3290  -5.6735  -5.5567   5.3443   6.0371
     8.3527   9.5127  11.0330  11.4372

          k = 0.0779-0.4048 0.5395 (  2806 PWs)   bands (ev):

   -26.5845  -9.9087  -8.7795  -8.1081  -5.8932  -4.8036   3.4149   3.9575
     8.7433   9.9458  11.1046  11.2633

          k = 0.0779-0.2249 0.1079 (  2825 PWs)   bands (ev):

   -27.0209  -9.6363  -8.3991  -7.8395  -6.7206  -5.4139   7.5482   7.7268
     8.4091   8.9621  11.0111  11.7363

          k = 0.0779-0.2249 0.3237 (  2814 PWs)   bands (ev):

   -26.8204  -9.4904  -8.6518  -8.2173  -6.3021  -5.0525   4.8575   6.6714
     8.2566   8.9442  10.8334  11.6070

          k = 0.0779-0.2249 0.5395 (  2803 PWs)   bands (ev):

   -26.6081 -10.1629  -8.4016  -8.0335  -5.9468  -4.5836   2.9018   4.6315
     9.0473   9.4078  10.4733  11.3293

          k = 0.0779-0.0450 0.1079 (  2815 PWs)   bands (ev):

   -27.0447  -8.9537  -8.3045  -8.0369  -7.5033  -5.0273   7.3870   7.3902
     7.7304   9.1384  11.5606  11.8959

          k = 0.0779-0.0450 0.3237 (  2817 PWs)   bands (ev):

   -26.8413  -9.4499  -8.2908  -8.1462  -6.9188  -4.6896   4.6769   7.1032
     7.9560   8.3983  11.0295  11.6046

          k = 0.0779-0.0450 0.5395 (  2790 PWs)   bands (ev):

   -26.6251 -10.3281  -8.0584  -7.9831  -6.0376  -4.4959   2.7082   5.1438
     8.9434   9.5964  10.1354  10.7870

          k = 0.2337 0.4048 0.1079 (  2812 PWs)   bands (ev):

   -26.9788  -9.9801  -9.0475  -7.7537  -5.7311  -5.6173   7.0941   8.0483
     8.4537   9.8547  10.5744  12.3215

          k = 0.2337 0.4048 0.3237 (  2817 PWs)   bands (ev):

   -26.7841  -9.4807  -8.8261  -8.6664  -5.7100  -5.2983   5.3108   5.9556
     7.9133   9.9489  10.9681  11.9068

          k = 0.2337 0.4048 0.5395 (  2818 PWs)   bands (ev):

   -26.5784  -9.8226  -8.7486  -8.3246  -5.7827  -4.9166   3.4585   3.9213
     8.8704   9.9294  11.1082  11.2968

          k = 0.2337 0.5847 0.1079 (  2823 PWs)   bands (ev):

   -26.9725  -9.9139  -9.2831  -7.7424  -5.7141  -5.4688   6.9339   8.1097
     8.3472  10.0680  10.5962  12.4832

          k = 0.2337 0.5847 0.3237 (  2819 PWs)   bands (ev):

   -26.7785  -9.4098  -8.8856  -8.7829  -5.5741  -5.3660   5.5366   5.7581
     7.7770  10.2132  10.8125  12.0081

          k = 0.2337 0.5847 0.5395 (  2828 PWs)   bands (ev):

   -26.5739  -9.7645  -8.7434  -8.4367  -5.6303  -5.1127   3.6720   3.7551
     8.8820  10.2515  10.9251  11.1634

          k = 0.2337-0.3148 0.1079 (  2818 PWs)   bands (ev):

   -26.9902  -9.9867  -8.7422  -7.7812  -6.0562  -5.5544   7.2850   7.9871
     8.5608   9.4274  10.6831  12.1206

          k = 0.2337-0.3148 0.3237 (  2819 PWs)   bands (ev):

   -26.7939  -9.5046  -8.8503  -8.4407  -5.9700  -5.1353   5.0473   6.1809
     8.0276   9.6063  11.1616  11.8452

          k = 0.2337-0.3148 0.5395 (  2814 PWs)   bands (ev):

   -26.5864  -9.9156  -8.7122  -8.1827  -5.9456  -4.6795   3.1988   4.1256
     8.7368   9.7472  11.2027  11.4530

          k = 0.2337-0.1349 0.1079 (  2834 PWs)   bands (ev):

   -27.0147  -9.7529  -8.3665  -7.8731  -6.6485  -5.3894   7.4657   7.6591
     8.7335   8.8164  10.9325  11.9702

          k = 0.2337-0.1349 0.3237 (  2819 PWs)   bands (ev):

   -26.8149  -9.4449  -8.8013  -8.1981  -6.3676  -4.9001   4.7380   6.5649
     7.9480   9.2632  11.0106  11.9787

          k = 0.2337-0.1349 0.5395 (  2804 PWs)   bands (ev):

   -26.6035 -10.1052  -8.5042  -8.0250  -6.0661  -4.4455   2.8556   4.5331
     8.5420   9.7447  10.9965  11.3710

          k = 0.3895 0.6747 0.1079 (  2824 PWs)   bands (ev):

   -26.9749 -10.0904  -8.9471  -7.7474  -6.0303  -5.3309   7.1665   8.0909
     8.3997   9.6289  10.8750  12.2800

          k = 0.3895 0.6747 0.3237 (  2827 PWs)   bands (ev):

   -26.7807  -9.5510  -8.8350  -8.5931  -5.7995  -5.2355   5.4527   5.8059
     7.9595   9.8511  11.0828  11.9396

          k = 0.3895 0.6747 0.5395 (  2818 PWs)   bands (ev):

   -26.5754  -9.7831  -8.8375  -8.2764  -5.8292  -4.9137   3.5985   3.7754
     8.7131  10.1975  11.1238  11.2753

          k = 0.3895-0.2249 0.1079 (  2824 PWs)   bands (ev):

   -26.9838 -10.1910  -8.4283  -7.7920  -6.4801  -5.2680   7.6102   8.0333
     8.4444   8.9782  11.3009  11.8365

          k = 0.3895-0.2249 0.3237 (  2817 PWs)   bands (ev):

   -26.7881  -9.6214  -8.8810  -8.2511  -6.1804  -5.0084   5.0827   6.0614
     8.1569   9.3711  11.5601  11.8628

          k = 0.3895-0.2249 0.5395 (  2810 PWs)   bands (ev):

   -26.5815  -9.8499  -8.8735  -8.0674  -6.1009  -4.5886   3.2428   4.0114
     8.3962  10.0701  11.4209  11.5665

          k =-0.0779-0.3148 0.1079 (  2825 PWs)   bands (ev):

   -27.0033  -9.9208  -8.4757  -7.7925  -6.3097  -5.6087   7.6885   7.8717
     8.7529   8.8903  10.7761  11.7115

          k =-0.0779-0.3148 0.3237 (  2820 PWs)   bands (ev):

   -26.8052  -9.5676  -8.7428  -8.2759  -5.9209  -5.3593   5.0851   6.3635
     8.3829   9.2673  10.9126  11.4233

          k =-0.0779-0.3148 0.5395 (  2810 PWs)   bands (ev):

   -26.5956 -10.0330  -8.6118  -8.0729  -5.8972  -4.7066   3.1371   4.2842
     8.9667   9.5443  10.8134  11.3784

          k =-0.0779-0.4947 0.1079 (  2821 PWs)   bands (ev):

   -26.9790 -10.2026  -8.5907  -7.7528  -6.3151  -5.3153   7.6012   8.0474
     8.5162   9.1057  11.0968  11.9035

          k =-0.0779-0.4947 0.3237 (  2819 PWs)   bands (ev):

   -26.7841  -9.6663  -8.8096  -8.3577  -5.9022  -5.2823   5.4732   5.8213
     8.2453   9.5472  11.2166  11.6683

          k =-0.0779-0.4947 0.5395 (  2816 PWs)   bands (ev):

   -26.5783  -9.8240  -8.8792  -8.1289  -5.9481  -4.8018   3.6108   3.7308
     8.5770  10.2183  11.1696  11.3444

          k =-0.0779 0.4048 0.1079 (  2826 PWs)   bands (ev):

   -26.9880 -10.0951  -8.5528  -7.7931  -6.3313  -5.3639   7.4274   8.0089
     8.4794   9.1752  11.0238  12.0096

          k =-0.0779 0.4048 0.3237 (  2823 PWs)   bands (ev):

   -26.7919  -9.5518  -8.8912  -8.3184  -6.1319  -5.0119   5.0053   6.1450
     8.0627   9.4599  11.4044  11.9372

          k =-0.0779 0.4048 0.5395 (  2806 PWs)   bands (ev):

   -26.5845  -9.8876  -8.7986  -8.1072  -6.0562  -4.5877   3.1739   4.0956
     8.4914   9.9369  11.3734  11.5285

          k =-0.0779 0.2249 0.1079 (  2825 PWs)   bands (ev):

   -27.0209  -9.6239  -8.4009  -7.8663  -6.7392  -5.3675   7.4200   7.6609
     8.5721   8.8988  10.9592  11.9318

          k =-0.0779 0.2249 0.3237 (  2814 PWs)   bands (ev):

   -26.8204  -9.4503  -8.7012  -8.2137  -6.3916  -4.9246   4.7560   6.6710
     8.0001   9.1283  10.8922  11.8459

          k =-0.0779 0.2249 0.5395 (  2803 PWs)   bands (ev):

   -26.6081 -10.1575  -8.4048  -8.0324  -6.0170  -4.4902   2.8397   4.6447
     8.7176   9.6340  10.7098  11.3086

          k =-0.0779 0.0450 0.1079 (  2815 PWs)   bands (ev):

   -27.0447  -8.9607  -8.3054  -8.0184  -7.5109  -5.0322   7.4055   7.4712
     7.6347   9.1458  11.7021  11.7338

          k =-0.0779 0.0450 0.3237 (  2817 PWs)   bands (ev):

   -26.8413  -9.4548  -8.2832  -8.1482  -6.9100  -4.7045   4.6919   7.1003
     8.1177   8.2440  11.0449  11.5515

          k =-0.0779 0.0450 0.5395 (  2790 PWs)   bands (ev):

   -26.6251 -10.3287  -8.0578  -7.9842  -6.0260  -4.5107   2.7166   5.1433
     9.0608   9.4973  10.0612  10.8265

          k =-0.2337-0.5847 0.1079 (  2823 PWs)   bands (ev):

   -26.9725  -9.9115  -9.2856  -7.7432  -5.7388  -5.4413   6.9193   8.1364
     8.3182  10.0484  10.6261  12.4969

          k =-0.2337-0.5847 0.3237 (  2819 PWs)   bands (ev):

   -26.7785  -9.3947  -8.9280  -8.7565  -5.6405  -5.2937   5.4751   5.8039
     7.7676  10.1632  10.8794  12.0365

          k =-0.2337-0.5847 0.5395 (  2828 PWs)   bands (ev):

   -26.5739  -9.7626  -8.7460  -8.4360  -5.6554  -5.0841   3.6099   3.8105
     8.8621  10.2332  10.9957  11.1485

          k =-0.2337 0.3148 0.1079 (  2818 PWs)   bands (ev):

   -26.9902  -9.9954  -8.7355  -7.7711  -5.9441  -5.6862   7.3965   7.9483
     8.6405   9.4181  10.5935  12.0226

          k =-0.2337 0.3148 0.3237 (  2819 PWs)   bands (ev):

   -26.7939  -9.5511  -8.7801  -8.4580  -5.7756  -5.3677   5.1842   6.1443
     8.1399   9.6562  10.9820  11.6343

          k =-0.2337 0.3148 0.5395 (  2814 PWs)   bands (ev):

   -26.5864  -9.9242  -8.7041  -8.1832  -5.8688  -4.7795   3.2912   4.0779
     8.9047   9.6721  11.0929  11.3535

          k =-0.2337 0.1349 0.1079 (  2834 PWs)   bands (ev):

   -27.0147  -9.7762  -8.3683  -7.8152  -6.5892  -5.5079   7.7355   7.8539
     8.3709   8.9463  11.0103  11.5507

          k =-0.2337 0.1349 0.3237 (  2819 PWs)   bands (ev):

   -26.8148  -9.5390  -8.6904  -8.2020  -6.1286  -5.2268   4.9798   6.5583
     8.5478   8.8658  10.8357  11.4284

          k =-0.2337 0.1349 0.5395 (  2804 PWs)   bands (ev):

   -26.6035 -10.1188  -8.4952  -8.0271  -5.9065  -4.6589   3.0069   4.4927
     9.0999   9.4313  10.4884  11.3719

          k =-0.3895 0.2249 0.1079 (  2824 PWs)   bands (ev):

   -26.9838 -10.2041  -8.4292  -7.7571  -6.4135  -5.3803   7.8718   8.1471
     8.5127   8.7838  11.1886  11.6074

          k =-0.3895 0.2249 0.3237 (  2817 PWs)   bands (ev):

   -26.7881  -9.6936  -8.7947  -8.2530  -5.8629  -5.4053   5.4520   5.9073
     8.4433   9.3912  11.3054  11.3162

          k =-0.3895 0.2249 0.5395 (  2810 PWs)   bands (ev):

   -26.5815  -9.8715  -8.8539  -8.0684  -5.9574  -4.7807   3.5355   3.8138
     8.5782  10.1809  11.2067  11.2293

!    total energy              =    -139.72689151 Ry
     Harris-Foulkes estimate   =    -139.72689178 Ry
     estimated scf accuracy    <       0.00000037 Ry

     The total energy is the sum of the following terms:

     one-electron contribution =     -11.74428463 Ry
     hartree contribution      =      22.22785031 Ry
     xc contribution           =     -26.57983117 Ry
     ewald contribution        =    -123.63062602 Ry

     convergence has been achieved in  10 iterations

     Forces acting on atoms (Ry/au):

     atom    1 type  3   force =     0.00000000    0.00000000   -0.00007731
     atom    2 type  2   force =     0.00000000   -0.00000000    0.02286328
     atom    3 type  2   force =     0.00000000   -0.00000000   -0.02282873
     atom    4 type  1   force =     0.00000000    0.00000000   -0.03671608
     atom    5 type  1   force =     0.00000000   -0.00000000    0.03675884

     Total force =     0.061181     Total SCF correction =     0.000094


     entering subroutine stress ...

          total   stress  (Ry/bohr**3)                   (kbar)     P=  809.65
   0.00567826  -0.00000000   0.00000000        835.30     -0.00      0.00
  -0.00000000   0.00567826  -0.00000000         -0.00    835.30     -0.00
   0.00000000  -0.00000000   0.00515525          0.00     -0.00    758.36


     number of scf cycles    =   3
     number of bfgs steps    =   1

     enthalpy old            =    -138.4353102269 Ry
     enthalpy new            =    -138.5130004113 Ry

     CASE: enthalpy_new < enthalpy_old

     new trust radius        =       0.0511874500 bohr
     new conv_thr            =       0.0000003676 Ry

     new unit-cell volume =    194.77190 a.u.^3 (    28.86222 Ang^3 )

CELL_PARAMETERS (alat=  6.37640000)
   1.069619390   0.000000000   0.000000000
  -0.534809695   0.926317564  -0.000000000
   0.000000000  -0.000000000   0.758246619

ATOMIC_POSITIONS (crystal)
Ca       0.000000000   0.000000000  -0.000024584
O        0.333333333   0.666666667   0.293738577
O        0.666666667   0.333333333   0.705268486
H        0.333333333   0.666666667   0.665268719
H        0.666666667   0.333333333   0.333748801



     Writing output data file CaOH2_ambient.save
     NEW-OLD atomic charge density approx. for the potential
     NEW k-points:
        k(    1) = (   0.0779093   0.1349429   0.1099027), wk =   0.0370370
        k(    2) = (   0.0779093   0.1349429   0.3297080), wk =   0.0370370
        k(    3) = (   0.0779093   0.1349429   0.5495134), wk =   0.0370370
        k(    4) = (   0.0779093   0.3148668   0.1099027), wk =   0.0370370
        k(    5) = (   0.0779093   0.3148668   0.3297080), wk =   0.0370370
        k(    6) = (   0.0779093   0.3148668   0.5495134), wk =   0.0370370
        k(    7) = (   0.0779093   0.4947907   0.1099027), wk =   0.0370370
        k(    8) = (   0.0779093   0.4947907   0.3297080), wk =   0.0370370
        k(    9) = (   0.0779093   0.4947907   0.5495134), wk =   0.0370370
        k(   10) = (   0.0779093  -0.4048288   0.1099027), wk =   0.0370370
        k(   11) = (   0.0779093  -0.4048288   0.3297080), wk =   0.0370370
        k(   12) = (   0.0779093  -0.4048288   0.5495134), wk =   0.0370370
        k(   13) = (   0.0779093  -0.2249049   0.1099027), wk =   0.0370370
        k(   14) = (   0.0779093  -0.2249049   0.3297080), wk =   0.0370370
        k(   15) = (   0.0779093  -0.2249049   0.5495134), wk =   0.0370370
        k(   16) = (   0.0779093  -0.0449810   0.1099027), wk =   0.0185185
        k(   17) = (   0.0779093  -0.0449810   0.3297080), wk =   0.0185185
        k(   18) = (   0.0779093  -0.0449810   0.5495134), wk =   0.0185185
        k(   19) = (   0.2337280   0.4048288   0.1099027), wk =   0.0370370
        k(   20) = (   0.2337280   0.4048288   0.3297080), wk =   0.0370370
        k(   21) = (   0.2337280   0.4048288   0.5495134), wk =   0.0370370
        k(   22) = (   0.2337280   0.5847527   0.1099027), wk =   0.0370370
        k(   23) = (   0.2337280   0.5847527   0.3297080), wk =   0.0370370
        k(   24) = (   0.2337280   0.5847527   0.5495134), wk =   0.0370370
        k(   25) = (   0.2337280  -0.3148668   0.1099027), wk =   0.0370370
        k(   26) = (   0.2337280  -0.3148668   0.3297080), wk =   0.0370370
        k(   27) = (   0.2337280  -0.3148668   0.5495134), wk =   0.0370370
        k(   28) = (   0.2337280  -0.1349429   0.1099027), wk =   0.0185185
        k(   29) = (   0.2337280  -0.1349429   0.3297080), wk =   0.0185185
        k(   30) = (   0.2337280  -0.1349429   0.5495134), wk =   0.0185185
        k(   31) = (   0.3895467   0.6747146   0.1099027), wk =   0.0370370
        k(   32) = (   0.3895467   0.6747146   0.3297080), wk =   0.0370370
        k(   33) = (   0.3895467   0.6747146   0.5495134), wk =   0.0370370
        k(   34) = (   0.3895467  -0.2249049   0.1099027), wk =   0.0185185
        k(   35) = (   0.3895467  -0.2249049   0.3297080), wk =   0.0185185
        k(   36) = (   0.3895467  -0.2249049   0.5495134), wk =   0.0185185
        k(   37) = (  -0.0779093  -0.3148668   0.1099027), wk =   0.0370370
        k(   38) = (  -0.0779093  -0.3148668   0.3297080), wk =   0.0370370
        k(   39) = (  -0.0779093  -0.3148668   0.5495134), wk =   0.0370370
        k(   40) = (  -0.0779093  -0.4947907   0.1099027), wk =   0.0370370
        k(   41) = (  -0.0779093  -0.4947907   0.3297080), wk =   0.0370370
        k(   42) = (  -0.0779093  -0.4947907   0.5495134), wk =   0.0370370
        k(   43) = (  -0.0779093   0.4048288   0.1099027), wk =   0.0370370
        k(   44) = (  -0.0779093   0.4048288   0.3297080), wk =   0.0370370
        k(   45) = (  -0.0779093   0.4048288   0.5495134), wk =   0.0370370
        k(   46) = (  -0.0779093   0.2249049   0.1099027), wk =   0.0370370
        k(   47) = (  -0.0779093   0.2249049   0.3297080), wk =   0.0370370
        k(   48) = (  -0.0779093   0.2249049   0.5495134), wk =   0.0370370
        k(   49) = (  -0.0779093   0.0449810   0.1099027), wk =   0.0185185
        k(   50) = (  -0.0779093   0.0449810   0.3297080), wk =   0.0185185
        k(   51) = (  -0.0779093   0.0449810   0.5495134), wk =   0.0185185
        k(   52) = (  -0.2337280  -0.5847527   0.1099027), wk =   0.0370370
        k(   53) = (  -0.2337280  -0.5847527   0.3297080), wk =   0.0370370
        k(   54) = (  -0.2337280  -0.5847527   0.5495134), wk =   0.0370370
        k(   55) = (  -0.2337280   0.3148668   0.1099027), wk =   0.0370370
        k(   56) = (  -0.2337280   0.3148668   0.3297080), wk =   0.0370370
        k(   57) = (  -0.2337280   0.3148668   0.5495134), wk =   0.0370370
        k(   58) = (  -0.2337280   0.1349429   0.1099027), wk =   0.0185185
        k(   59) = (  -0.2337280   0.1349429   0.3297080), wk =   0.0185185
        k(   60) = (  -0.2337280   0.1349429   0.5495134), wk =   0.0185185
        k(   61) = (  -0.3895467   0.2249049   0.1099027), wk =   0.0185185
        k(   62) = (  -0.3895467   0.2249049   0.3297080), wk =   0.0185185
        k(   63) = (  -0.3895467   0.2249049   0.5495134), wk =   0.0185185
     extrapolated charge   23.58900, renormalised to   24.00000

     total cpu time spent up to now is      468.4 secs

     per-process dynamical memory:    16.4 Mb

     Self-consistent Calculation

     iteration #  1     ecut=   100.00 Ry     beta=0.30
     Davidson diagonalization with overlap
     ethr =  1.00E-06,  avg # of iterations =  5.0

     total cpu time spent up to now is      484.8 secs

     total energy              =    -139.69515307 Ry
     Harris-Foulkes estimate   =    -139.86825606 Ry
     estimated scf accuracy    <       0.01706980 Ry

     iteration #  2     ecut=   100.00 Ry     beta=0.30
     Davidson diagonalization with overlap
     ethr =  7.11E-05,  avg # of iterations =  2.7

     total cpu time spent up to now is      494.2 secs

     total energy              =    -139.70478425 Ry
     Harris-Foulkes estimate   =    -139.70501561 Ry
     estimated scf accuracy    <       0.00120289 Ry

     iteration #  3     ecut=   100.00 Ry     beta=0.30
     Davidson diagonalization with overlap
     ethr =  5.01E-06,  avg # of iterations =  1.8

     total cpu time spent up to now is      500.7 secs

     total energy              =    -139.70437196 Ry
     Harris-Foulkes estimate   =    -139.70482804 Ry
     estimated scf accuracy    <       0.00070656 Ry

     iteration #  4     ecut=   100.00 Ry     beta=0.30
     Davidson diagonalization with overlap
     ethr =  2.94E-06,  avg # of iterations =  2.0

     total cpu time spent up to now is      508.7 secs

     total energy              =    -139.70454119 Ry
     Harris-Foulkes estimate   =    -139.70456849 Ry
     estimated scf accuracy    <       0.00009878 Ry

     iteration #  5     ecut=   100.00 Ry     beta=0.30
     Davidson diagonalization with overlap
     ethr =  4.12E-07,  avg # of iterations =  1.4

     total cpu time spent up to now is      515.0 secs

     total energy              =    -139.70452860 Ry
     Harris-Foulkes estimate   =    -139.70454600 Ry
     estimated scf accuracy    <       0.00003343 Ry

     iteration #  6     ecut=   100.00 Ry     beta=0.30
     Davidson diagonalization with overlap
     ethr =  1.39E-07,  avg # of iterations =  2.0

     total cpu time spent up to now is      523.0 secs

     total energy              =    -139.70453766 Ry
     Harris-Foulkes estimate   =    -139.70453787 Ry
     estimated scf accuracy    <       0.00000139 Ry

     iteration #  7     ecut=   100.00 Ry     beta=0.30
     Davidson diagonalization with overlap
     ethr =  5.80E-09,  avg # of iterations =  2.0

     total cpu time spent up to now is      529.7 secs

     total energy              =    -139.70453736 Ry
     Harris-Foulkes estimate   =    -139.70453774 Ry
     estimated scf accuracy    <       0.00000082 Ry

     iteration #  8     ecut=   100.00 Ry     beta=0.30
     Davidson diagonalization with overlap
     ethr =  3.42E-09,  avg # of iterations =  2.0

     total cpu time spent up to now is      537.8 secs

     End of self-consistent calculation

          k = 0.0779 0.1349 0.1099 (  2820 PWs)   bands (ev):

   -26.8802  -9.2316  -8.1540  -7.6625  -7.0872  -5.2558   7.6127   7.6993
     8.1268   9.2059  11.5972  12.1103

          k = 0.0779 0.1349 0.3297 (  2812 PWs)   bands (ev):

   -26.6445  -9.3684  -8.2860  -7.9641  -6.6285  -4.8568   4.8667   7.1280
     8.2258   8.8256  11.1598  11.9709

          k = 0.0779 0.1349 0.5495 (  2794 PWs)   bands (ev):

   -26.3926 -10.2484  -7.9633  -7.7691  -6.0478  -4.4703   2.7902   5.1798
     9.1158   9.7946  10.4862  11.3644

          k = 0.0779 0.3149 0.1099 (  2825 PWs)   bands (ev):

   -26.8470  -9.8340  -8.3096  -7.5495  -6.3779  -5.5078   7.6111   8.0422
     8.8540   9.1351  11.0710  12.2693

          k = 0.0779 0.3149 0.3297 (  2820 PWs)   bands (ev):

[...]
        k(   60) = (  -0.2355744   0.1360089   0.5366332), wk =   0.0185185
        k(   61) = (  -0.3926240   0.2266816   0.1073266), wk =   0.0185185
        k(   62) = (  -0.3926240   0.2266816   0.3219799), wk =   0.0185185
        k(   63) = (  -0.3926240   0.2266816   0.5366332), wk =   0.0185185

     Dense  grid:    18851 G-vectors     FFT dimensions: (  40,  40,  30)

     Largest allocated arrays     est. size (Mb)     dimensions
        Kohn-Sham Wavefunctions         0.61 Mb     (   3336,   12)
        NL pseudopotentials             0.46 Mb     (   3336,    9)
        Each V/rho on FFT grid          0.73 Mb     (  48000)
        Each G-vector array             0.14 Mb     (  18851)
        G-vector shells                 0.01 Mb     (    905)
     Largest temporary arrays     est. size (Mb)     dimensions
        Auxiliary wavefunctions         2.44 Mb     (   3336,   48)
        Each subspace H/S matrix        0.04 Mb     (  48,  48)
        Each <psi_i|beta_j> matrix      0.00 Mb     (      9,   12)
        Arrays for rho mixing          11.72 Mb     (  48000,  16)

     Initial potential from superposition of free atoms

     starting charge   21.99998, renormalised to   24.00000
     Starting wfc are   14 randomized atomic wfcs

     Writing output data file CaOH2_ambient.save

     total cpu time spent up to now is     1526.5 secs

     per-process dynamical memory:    15.8 Mb

     Self-consistent Calculation

     iteration #  1     ecut=   100.00 Ry     beta=0.30
     Davidson diagonalization with overlap
     ethr =  1.00E-06,  avg # of iterations =  5.9

     total cpu time spent up to now is     1546.1 secs

     total energy              =    -139.86172240 Ry
     Harris-Foulkes estimate   =    -139.94107280 Ry
     estimated scf accuracy    <       0.45629222 Ry

     iteration #  2     ecut=   100.00 Ry     beta=0.30
     Davidson diagonalization with overlap
     ethr =  1.90E-03,  avg # of iterations =  1.0

     total cpu time spent up to now is     1553.0 secs

     total energy              =    -139.67230405 Ry
     Harris-Foulkes estimate   =    -139.86516218 Ry
     estimated scf accuracy    <       0.29571204 Ry

     iteration #  3     ecut=   100.00 Ry     beta=0.30
     Davidson diagonalization with overlap
     ethr =  1.23E-03,  avg # of iterations =  2.0

     total cpu time spent up to now is     1562.3 secs

     total energy              =    -139.72190400 Ry
     Harris-Foulkes estimate   =    -139.72552500 Ry
     estimated scf accuracy    <       0.01594064 Ry

     iteration #  4     ecut=   100.00 Ry     beta=0.30
     Davidson diagonalization with overlap
     ethr =  6.64E-05,  avg # of iterations =  1.4

     total cpu time spent up to now is     1569.3 secs

     total energy              =    -139.72077934 Ry
     Harris-Foulkes estimate   =    -139.72259794 Ry
     estimated scf accuracy    <       0.00351682 Ry

     iteration #  5     ecut=   100.00 Ry     beta=0.30
     Davidson diagonalization with overlap
     ethr =  1.47E-05,  avg # of iterations =  2.0

     total cpu time spent up to now is     1577.9 secs

     total energy              =    -139.72119345 Ry
     Harris-Foulkes estimate   =    -139.72126930 Ry
     estimated scf accuracy    <       0.00051549 Ry

     iteration #  6     ecut=   100.00 Ry     beta=0.30
     Davidson diagonalization with overlap
     ethr =  2.15E-06,  avg # of iterations =  1.0

     total cpu time spent up to now is     1584.8 secs

     total energy              =    -139.72113187 Ry
     Harris-Foulkes estimate   =    -139.72121280 Ry
     estimated scf accuracy    <       0.00022014 Ry

     iteration #  7     ecut=   100.00 Ry     beta=0.30
     Davidson diagonalization with overlap
     ethr =  9.17E-07,  avg # of iterations =  2.2

     total cpu time spent up to now is     1594.1 secs

     total energy              =    -139.72120984 Ry
     Harris-Foulkes estimate   =    -139.72121291 Ry
     estimated scf accuracy    <       0.00005043 Ry

     iteration #  8     ecut=   100.00 Ry     beta=0.30
     Davidson diagonalization with overlap
     ethr =  2.10E-07,  avg # of iterations =  1.0

     total cpu time spent up to now is     1601.2 secs

     total energy              =    -139.72119082 Ry
     Harris-Foulkes estimate   =    -139.72121052 Ry
     estimated scf accuracy    <       0.00004087 Ry

     iteration #  9     ecut=   100.00 Ry     beta=0.30
     Davidson diagonalization with overlap
     ethr =  1.70E-07,  avg # of iterations =  2.0

     total cpu time spent up to now is     1610.3 secs

     total energy              =    -139.72119835 Ry
     Harris-Foulkes estimate   =    -139.72119834 Ry
     estimated scf accuracy    <       0.00000012 Ry

     iteration # 10     ecut=   100.00 Ry     beta=0.30
     Davidson diagonalization with overlap
     ethr =  5.08E-10,  avg # of iterations =  3.0

     total cpu time spent up to now is     1621.2 secs

     total energy              =    -139.72119841 Ry
     Harris-Foulkes estimate   =    -139.72119843 Ry
     estimated scf accuracy    <       0.00000012 Ry

     iteration # 11     ecut=   100.00 Ry     beta=0.30
     Davidson diagonalization with overlap
     ethr =  4.94E-10,  avg # of iterations =  2.0

     total cpu time spent up to now is     1630.0 secs

     End of self-consistent calculation

          k = 0.0785 0.1360 0.1073 (  3315 PWs)   bands (ev):

   -26.7758  -9.2087  -8.0805  -7.7158  -7.0407  -5.1660   7.3407   7.6038
     8.0467   8.9839  11.4626  11.9795

          k = 0.0785 0.1360 0.3220 (  3319 PWs)   bands (ev):

   -26.5802  -9.3460  -8.2592  -7.9168  -6.5715  -4.8549   4.7714   6.9976
     8.1383   8.7731  10.9807  11.8177

          k = 0.0785 0.1360 0.5366 (  3313 PWs)   bands (ev):

   -26.3733 -10.0918  -7.9816  -7.7518  -6.0196  -4.6092   2.9368   5.1616
     8.9972   9.7785  10.1947  11.1629

          k = 0.0785 0.3174 0.1073 (  3309 PWs)   bands (ev):

   -26.7390  -9.8271  -8.2500  -7.6260  -6.3063  -5.4003   7.3919   7.9122
     8.5824   9.0837  10.9325  12.1088

          k = 0.0785 0.3174 0.3220 (  3315 PWs)   bands (ev):

   -26.5481  -9.3824  -8.6436  -8.0268  -6.1699  -4.9658   4.8977   6.4491
     8.1250   9.5236  11.2409  12.0287

          k = 0.0785 0.3174 0.5366 (  3306 PWs)   bands (ev):

   -26.3465  -9.7981  -8.4701  -7.8337  -6.1084  -4.5585   3.1663   4.5397
     8.6734   9.8752  11.2332  11.5526

          k = 0.0785 0.4987 0.1073 (  3304 PWs)   bands (ev):

   -26.7119 -10.1249  -8.3795  -7.5468  -6.3369  -5.1133   7.5294   8.1377
     8.3182   9.2015  11.2605  12.0888

          k = 0.0785 0.4987 0.3220 (  3312 PWs)   bands (ev):

   -26.5244  -9.5482  -8.6217  -8.1247  -6.0844  -5.0162   5.3280   6.0020
     8.2779   9.6212  11.5051  11.9406

          k = 0.0785 0.4987 0.5366 (  3336 PWs)   bands (ev):

   -26.3268  -9.5503  -8.7647  -7.9012  -6.1337  -4.7335   3.5906   4.1099
     8.6109  10.2794  11.4050  11.5257

          k = 0.0785-0.4080 0.1073 (  3309 PWs)   bands (ev):

   -26.7218 -10.0410  -8.3224  -7.5422  -6.2023  -5.3909   7.8498   7.8879
     8.5533   9.1343  10.9499  11.8709

          k = 0.0785-0.4080 0.3220 (  3318 PWs)   bands (ev):

   -26.5331  -9.5626  -8.5304  -8.1004  -5.7265  -5.4652   5.4323   6.0893
     8.5042   9.6528  11.1043  11.5030

          k = 0.0785-0.4080 0.5366 (  3323 PWs)   bands (ev):

   -26.3340  -9.6740  -8.6313  -7.8766  -5.9850  -4.8444   3.6145   4.1572
     8.8760  10.0731  11.1448  11.3489

          k = 0.0785-0.2267 0.1073 (  3308 PWs)   bands (ev):

   -26.7588  -9.5624  -8.1530  -7.6325  -6.5773  -5.4057   7.4730   7.8077
     8.4717   8.8827  11.1200  11.8591

          k = 0.0785-0.2267 0.3220 (  3318 PWs)   bands (ev):

   -26.5653  -9.3950  -8.4310  -7.9706  -6.2018  -5.1010   4.9182   6.7320
     8.3719   9.0778  10.9027  11.7184

          k = 0.0785-0.2267 0.5366 (  3308 PWs)   bands (ev):

   -26.3609  -9.9706  -8.2164  -7.7896  -5.9714  -4.6693   3.0862   4.8352
     9.1624   9.5349  10.5057  11.4169

          k = 0.0785-0.0453 0.1073 (  3323 PWs)   bands (ev):

   -26.7857  -8.8913  -8.0443  -7.8378  -7.3430  -5.0173   7.2953   7.4826
     7.7497   9.0524  11.6975  12.0446

          k = 0.0785-0.0453 0.3220 (  3320 PWs)   bands (ev):

   -26.5887  -9.3391  -8.0616  -7.8906  -6.8385  -4.7350   4.7265   7.1799
     8.0370   8.5001  11.1354  11.7300

          k = 0.0785-0.0453 0.5366 (  3314 PWs)   bands (ev):

   -26.3804 -10.1597  -7.8228  -7.7325  -6.0502  -4.6084   2.8833   5.3718
     9.0135   9.6997  10.1992  10.8762

          k = 0.2356 0.4080 0.1073 (  3313 PWs)   bands (ev):

   -26.7120  -9.9003  -8.8903  -7.5321  -5.6520  -5.4906   7.2040   7.9824
     8.3593   9.9454  10.6502  12.4250

          k = 0.2356 0.4080 0.3220 (  3315 PWs)   bands (ev):

   -26.5245  -9.3882  -8.6194  -8.4560  -5.6756  -5.2519   5.3904   6.0200
     8.0476  10.0696  11.0724  11.9755

          k = 0.2356 0.4080 0.5366 (  3319 PWs)   bands (ev):

   -26.3268  -9.5640  -8.6103  -8.1327  -5.8517  -4.9642   3.6707   4.1212
     9.0075  10.0412  11.1417  11.3994

          k = 0.2356 0.5894 0.1073 (  3309 PWs)   bands (ev):

   -26.7046  -9.8270  -9.1493  -7.5188  -5.6267  -5.3367   7.0599   8.0277
     8.2516  10.1574  10.6745  12.5859

          k = 0.2356 0.5894 0.3220 (  3315 PWs)   bands (ev):

   -26.5181  -9.3115  -8.7368  -8.5318  -5.5507  -5.3015   5.6246   5.8251
     7.9061  10.3335  10.9156  12.0765

          k = 0.2356 0.5894 0.5366 (  3328 PWs)   bands (ev):

   -26.3216  -9.4916  -8.6058  -8.2644  -5.7023  -5.1586   3.8914   3.9593
     9.0196  10.3625  11.0073  11.2145

          k = 0.2356-0.3174 0.1073 (  3312 PWs)   bands (ev):

   -26.7245  -9.9112  -8.5502  -7.5650  -5.9596  -5.4670   7.3385   7.9776
     8.4702   9.5044  10.7649  12.2298

          k = 0.2356-0.3174 0.3220 (  3314 PWs)   bands (ev):

   -26.5354  -9.4135  -8.6333  -8.2207  -5.9312  -5.1029   5.1156   6.2408
     8.1574   9.7324  11.2651  11.9232

          k = 0.2356-0.3174 0.5366 (  3323 PWs)   bands (ev):

   -26.3360  -9.6764  -8.5694  -7.9653  -6.0124  -4.7276   3.3982   4.3226
     8.8584   9.8698  11.2448  11.5530

          k = 0.2356-0.1360 0.1073 (  3300 PWs)   bands (ev):

   -26.7516  -9.6765  -8.1122  -7.6847  -6.5273  -5.3519   7.3726   7.7790
     8.7021   8.8163  11.0292  12.1011

          k = 0.2356-0.1360 0.3220 (  3313 PWs)   bands (ev):

   -26.5590  -9.3437  -8.5978  -7.9477  -6.3052  -4.9015   4.7916   6.6228
     8.0479   9.4071  11.0969  12.0901

          k = 0.2356-0.1360 0.5366 (  3307 PWs)   bands (ev):

   -26.3556  -9.9010  -8.3357  -7.7790  -6.1154  -4.5073   3.0382   4.7324
     8.6344   9.8862  11.0643  11.4419

          k = 0.3926 0.6800 0.1073 (  3313 PWs)   bands (ev):

   -26.7073 -10.0131  -8.7816  -7.5246  -5.9757  -5.1879   7.2849   8.0329
     8.2970   9.7106  10.9569  12.3794

          k = 0.3926 0.6800 0.3220 (  3317 PWs)   bands (ev):

   -26.5204  -9.4633  -8.6068  -8.3923  -5.8057  -5.1582   5.5385   5.8673
     8.0960   9.9735  11.1803  12.0113

          k = 0.3926 0.6800 0.5366 (  3326 PWs)   bands (ev):

   -26.3235  -9.5151  -8.7070  -8.0788  -5.9235  -4.9466   3.7949   3.9935
     8.8437  10.3157  11.2090  11.3280

          k = 0.3926-0.2267 0.1073 (  3310 PWs)   bands (ev):

   -26.7172 -10.1206  -8.1796  -7.5867  -6.4812  -5.1261   7.5869   8.1871
     8.3391   8.9847  11.3951  11.9339

          k = 0.3926-0.2267 0.3220 (  3316 PWs)   bands (ev):

   -26.5291  -9.5378  -8.6516  -8.0060  -6.2158  -4.9348   5.1499   6.1205
     8.2864   9.5009  11.6629  11.9436

          k = 0.3926-0.2267 0.5366 (  3324 PWs)   bands (ev):

   -26.3307  -9.5941  -8.7484  -7.8261  -6.2157  -4.6152   3.4308   4.2175
     8.5078  10.2038  11.5113  11.6244

          k =-0.0785-0.3174 0.1073 (  3309 PWs)   bands (ev):

   -26.7390  -9.8490  -8.2408  -7.5777  -6.2039  -5.5661   7.6523   7.9403
     8.6797   8.9606  10.8636  11.8160

          k =-0.0785-0.3174 0.3220 (  3315 PWs)   bands (ev):

   -26.5481  -9.4838  -8.5071  -8.0380  -5.8236  -5.4114   5.1584   6.4208
     8.5250   9.4058  10.9730  11.5120

          k =-0.0785-0.3174 0.5366 (  3306 PWs)   bands (ev):

   -26.3465  -9.8204  -8.4483  -7.8352  -5.9502  -4.7717   3.3312   4.4814
     9.1070   9.6556  10.8522  11.4656

          k =-0.0785-0.4987 0.1073 (  3304 PWs)   bands (ev):

   -26.7119 -10.1324  -8.3748  -7.5307  -6.3095  -5.1671   7.6966   8.0303
     8.4157   9.1759  11.1801  11.9945

          k =-0.0785-0.4987 0.3220 (  3312 PWs)   bands (ev):

   -26.5244  -9.5878  -8.5624  -8.1334  -5.9536  -5.1921   5.5711   5.8662
     8.3919   9.6789  11.2998  11.7373

          k =-0.0785-0.4987 0.5366 (  3336 PWs)   bands (ev):

   -26.3268  -9.5693  -8.7446  -7.9016  -6.0648  -4.8273   3.7821   3.9645
     8.7029  10.3532  11.2432  11.4004

          k =-0.0785 0.4080 0.1073 (  3309 PWs)   bands (ev):

   -26.7219 -10.0219  -8.3330  -7.5830  -6.2912  -5.2398   7.4426   8.0704
     8.3874   9.2169  11.1140  12.1160

          k =-0.0785 0.4080 0.3220 (  3318 PWs)   bands (ev):

   -26.5331  -9.4634  -8.6711  -8.0843  -6.1327  -4.9542   5.0699   6.2041
     8.1888   9.5882  11.5086  12.0218

          k =-0.0785 0.4080 0.5366 (  3323 PWs)   bands (ev):

   -26.3340  -9.6402  -8.6665  -7.8755  -6.1479  -4.6231   3.3665   4.2958
     8.6030  10.0686  11.4382  11.6111

          k =-0.0785 0.2267 0.1073 (  3308 PWs)   bands (ev):

   -26.7588  -9.5479  -8.1566  -7.6678  -6.5944  -5.3511   7.3552   7.7367
     8.6248   8.8202  11.0628  12.0645

          k =-0.0785 0.2267 0.3220 (  3318 PWs)   bands (ev):

   -26.5653  -9.3483  -8.4938  -7.9660  -6.3060  -4.9495   4.8109   6.7311
     8.1001   9.2683  10.9734  11.9595

          k =-0.0785 0.2267 0.5366 (  3308 PWs)   bands (ev):

   -26.3609  -9.9629  -8.2225  -7.7885  -6.0498  -4.5660   3.0218   4.8476
     8.8112   9.7732  10.7608  11.3889

          k =-0.0785 0.0453 0.1073 (  3323 PWs)   bands (ev):

   -26.7857  -8.8987  -8.0454  -7.8140  -7.3549  -5.0229   7.3272   7.5715
     7.6334   9.0595  11.8411  11.8799

          k =-0.0785 0.0453 0.3220 (  3320 PWs)   bands (ev):

   -26.5887  -9.3450  -8.0513  -7.8928  -6.8294  -4.7520   4.7423   7.1761
     8.2079   8.3385  11.1488  11.6770

          k =-0.0785 0.0453 0.5366 (  3314 PWs)   bands (ev):

   -26.3804 -10.1605  -7.8220  -7.7336  -6.0362  -4.6256   2.8920   5.3715
     9.1375   9.5925  10.1235  10.9182

          k =-0.2356-0.5894 0.1073 (  3309 PWs)   bands (ev):

   -26.7046  -9.8242  -9.1523  -7.5199  -5.6491  -5.3109   7.0411   8.0610
     8.2209  10.1326  10.7082  12.6004

          k =-0.2356-0.5894 0.3220 (  3315 PWs)   bands (ev):

   -26.5181  -9.2951  -8.7728  -8.5140  -5.6117  -5.2334   5.5573   5.8754
     7.8962  10.2795  10.9867  12.1063

          k =-0.2356-0.5894 0.5366 (  3328 PWs)   bands (ev):

   -26.3216  -9.4883  -8.6110  -8.2629  -5.7269  -5.1300   3.8240   4.0198
     8.9973  10.3457  11.0856  11.1933

          k =-0.2356 0.3174 0.1073 (  3312 PWs)   bands (ev):

   -26.7245  -9.9214  -8.5407  -7.5523  -5.8344  -5.6171   7.4758   7.9107
     8.5426   9.5187  10.6664  12.1263

          k =-0.2356 0.3174 0.3220 (  3314 PWs)   bands (ev):

   -26.5354  -9.4653  -8.5436  -8.2473  -5.7162  -5.3637   5.2610   6.2029
     8.2796   9.7886  11.0726  11.7026

          k =-0.2356 0.3174 0.5366 (  3323 PWs)   bands (ev):

   -26.3360  -9.6899  -8.5543  -7.9662  -5.9336  -4.8322   3.4941   4.2742
     9.0456   9.7787  11.1311  11.4520

          k =-0.2356 0.1360 0.1073 (  3300 PWs)   bands (ev):

   -26.7516  -9.7038  -8.1142  -7.6046  -6.4705  -5.4892   7.6185   7.9877
     8.4368   8.8700  11.1181  11.6581

          k =-0.2356 0.1360 0.3220 (  3313 PWs)   bands (ev):

   -26.5590  -9.4514  -8.4601  -7.9520  -6.0249  -5.2895   5.0476   6.6173
     8.6917   8.9901  10.8892  11.5349

          k =-0.2356 0.1360 0.5366 (  3307 PWs)   bands (ev):

   -26.3556  -9.9205  -8.3187  -7.7813  -5.9410  -4.7397   3.1952   4.6934
     9.2392   9.5503  10.5099  11.4599

          k =-0.3926 0.2267 0.1073 (  3310 PWs)   bands (ev):

   -26.7172 -10.1360  -8.1806  -7.5352  -6.4330  -5.2374   7.8524   8.3116
     8.4086   8.7947  11.2777  11.6895

          k =-0.3926 0.2267 0.3220 (  3316 PWs)   bands (ev):

   -26.5290  -9.6183  -8.5459  -8.0081  -5.9384  -5.3088   5.5512   5.9496
     8.5980   9.5300  11.3546  11.4029

          k =-0.3926 0.2267 0.5366 (  3324 PWs)   bands (ev):

   -26.3307  -9.6298  -8.7117  -7.8272  -6.0755  -4.8089   3.7222   4.0272
     8.7034  10.3260  11.2724  11.2823

!    total energy              =    -139.72119842 Ry
     Harris-Foulkes estimate   =    -139.72119843 Ry
     estimated scf accuracy    <          5.9E-09 Ry

     The total energy is the sum of the following terms:

     one-electron contribution =     -11.59448956 Ry
     hartree contribution      =      22.29760832 Ry
     xc contribution           =     -26.64865762 Ry
     ewald contribution        =    -123.77565956 Ry

     convergence has been achieved in  11 iterations

     Forces acting on atoms (Ry/au):

     atom    1 type  3   force =    -0.00000000   -0.00000000   -0.00003474
     atom    2 type  2   force =     0.00000000    0.00000000    0.00005424
     atom    3 type  2   force =    -0.00000000   -0.00000000   -0.00003017
     atom    4 type  1   force =    -0.00000000   -0.00000000   -0.00005199
     atom    5 type  1   force =     0.00000000    0.00000000    0.00006266

     Total force =     0.000108     Total SCF correction =     0.000072
     SCF correction compared to forces is large: reduce conv_thr to get better values


     entering subroutine stress ...

          total   stress  (Ry/bohr**3)                   (kbar)     P=  925.86
   0.00630922  -0.00000000  -0.00000000        928.12     -0.00     -0.00
  -0.00000000   0.00630922  -0.00000000         -0.00    928.12     -0.00
  -0.00000000  -0.00000000   0.00626320         -0.00     -0.00    921.35


     Writing output data file CaOH2_ambient.save

     init_run     :     34.36s CPU     34.87s WALL (       2 calls)
     electrons    :    902.30s CPU    918.48s WALL (      13 calls)
     update_pot   :    304.82s CPU    306.16s WALL (      11 calls)
     forces       :    115.13s CPU    115.65s WALL (      13 calls)
     stress       :    257.21s CPU    258.31s WALL (      13 calls)

     Called by init_run:
     wfcinit      :      8.50s CPU      8.66s WALL (       2 calls)
     potinit      :     10.04s CPU     10.25s WALL (       2 calls)

     Called by electrons:
     c_bands      :    772.94s CPU    786.34s WALL (     108 calls)
     sum_band     :    115.52s CPU    117.88s WALL (     108 calls)
     v_of_rho     :      7.99s CPU      8.08s WALL (     119 calls)
     mix_rho      :      6.33s CPU      6.47s WALL (     108 calls)

     Called by c_bands:
     init_us_2    :     29.34s CPU     32.45s WALL (   15372 calls)
     cegterg      :    756.13s CPU    763.23s WALL (    6804 calls)

     Called by *egterg:
     h_psi        :    574.73s CPU    579.28s WALL (   21651 calls)
     g_psi        :      6.41s CPU      6.42s WALL (   14721 calls)
     cdiaghg      :     10.43s CPU     10.55s WALL (   20706 calls)

     Called by h_psi:
     add_vuspsi   :     17.00s CPU     17.17s WALL (   21651 calls)

     General routines
     calbec       :     18.87s CPU     18.96s WALL (   23289 calls)
     fft          :      2.21s CPU      2.23s WALL (    1415 calls)
     ffts         :      2.78s CPU      2.81s WALL (    1799 calls)
     fftw         :    565.60s CPU    569.96s WALL (  530704 calls)
     davcio       :      4.32s CPU      9.25s WALL (   22176 calls)


     PWSCF        : 26m56.02s CPU    27m15.79s WALL


   This run was terminated on:  14:17:32  19Apr2014            

=------------------------------------------------------------------------------=
   JOB DONE.
=------------------------------------------------------------------------------=
