
     Program PWSCF v.5.0.2 (svn rev. 9392) starts on 20Apr2014 at  1:59:18 

     This program is part of the open-source Quantum ESPRESSO suite
     for quantum simulation of materials; please cite
         "P. Giannozzi et al., J. Phys.:Condens. Matter 21 395502 (2009);
          URL http://www.quantum-espresso.org", 
     in publications or presentations arising from this work. More details at
     http://www.quantum-espresso.org/quote.php

     Serial version

     Current dimensions of program PWSCF are:
     Max number of different atomic species (ntypx) = 10
     Max number of k-points (npk) =  40000
     Max angular momentum in pseudopotentials (lmaxx) =  3
     Waiting for input...
     Reading input from standard input

     G-vector sticks info
     --------------------
     sticks:   dense  smooth     PW     G-vecs:    dense   smooth      PW
     Sum         913     913    337                26035    26035    5883



     bravais-lattice index     =            4
     lattice parameter (alat)  =       6.3764  a.u.
     unit-cell volume          =     269.4254 (a.u.)^3
     number of atoms/cell      =            5
     number of atomic types    =            3
     number of electrons       =        24.00
     number of Kohn-Sham states=           12
     kinetic-energy cutoff     =     100.0000  Ry
     charge density cutoff     =     320.0000  Ry
     convergence threshold     =      1.0E-06
     mixing beta               =       0.3000
     number of iterations used =           16  local-TF  mixing
     Exchange-correlation      = PBE ( 1 4 3 4 0)
     EXX-fraction              =        0.00
     nstep                     =           50


     celldm(1)=   6.376400  celldm(2)=   0.000000  celldm(3)=   1.200000
     celldm(4)=   0.000000  celldm(5)=   0.000000  celldm(6)=   0.000000

     crystal axes: (cart. coord. in units of alat)
               a(1) = (   1.000000   0.000000   0.000000 )  
               a(2) = (  -0.500000   0.866025   0.000000 )  
               a(3) = (   0.000000   0.000000   1.200000 )  

     reciprocal axes: (cart. coord. in units 2 pi/alat)
               b(1) = (  1.000000  0.577350 -0.000000 )  
               b(2) = (  0.000000  1.154701  0.000000 )  
               b(3) = (  0.000000 -0.000000  0.833333 )  


     PseudoPot. # 1 for H  read from file:
     /home/ilia/espresso/pseudo/H.pbe-sp-mt.ncpp
     MD5 check sum: 7a641936b52ccecd26bd1ad87cca5aed
     Pseudo is Norm-conserving, Zval =  1.0
     Generated by old ld1 code (numerical format)
     Using radial grid of 1076 points,  0 beta functions with: 

     PseudoPot. # 2 for O  read from file:
     /home/ilia/espresso/pseudo/O.pbe-sp-mt.ncpp
     MD5 check sum: 8a3d23d410d2f3ebfd0a39faacc72cbb
     Pseudo is Norm-conserving, Zval =  6.0
     Generated by old ld1 code (numerical format)
     Using radial grid of 1130 points,  1 beta functions with: 
                l(1) =   1

     PseudoPot. # 3 for Ca read from file:
     /home/ilia/espresso/pseudo/Ca.pbe-sp-mt_ion2.ncpp
     MD5 check sum: 4bcd670d05521f7b178fdf0a334578ab
     Pseudo is Norm-conserving, Zval = 10.0
     Generated by old ld1 code (numerical format)
     Using radial grid of 1153 points,  1 beta functions with: 
                l(1) =   1

     atomic species   valence    mass     pseudopotential
        H              1.00     1.00700     H ( 1.00)
        O              6.00    16.00000     O ( 1.00)
        Ca            10.00    40.07800     Ca( 1.00)

      6 Sym. Ops. (no inversion) found



   Cartesian axes

     site n.     atom                  positions (alat units)
         1           Ca  tau(   1) = (   0.0000000   0.0000000   0.0000000  )
         2           O   tau(   2) = (   0.0000000   0.5773503   0.3444000  )
         3           O   tau(   3) = (   0.5000000   0.2886751   0.8544000  )
         4           H   tau(   4) = (   0.0000000   0.5773503   0.8088000  )
         5           H   tau(   5) = (   0.5000000   0.2886751   0.3900000  )

     number of k points=    63
                       cart. coord. in units 2pi/alat
        k(    1) = (   0.0833333   0.1443376   0.0694444), wk =   0.0370370
        k(    2) = (   0.0833333   0.1443376   0.2083333), wk =   0.0370370
        k(    3) = (   0.0833333   0.1443376   0.3472222), wk =   0.0370370
        k(    4) = (   0.0833333   0.3367877   0.0694444), wk =   0.0370370
        k(    5) = (   0.0833333   0.3367877   0.2083333), wk =   0.0370370
        k(    6) = (   0.0833333   0.3367877   0.3472222), wk =   0.0370370
        k(    7) = (   0.0833333   0.5292377   0.0694444), wk =   0.0370370
        k(    8) = (   0.0833333   0.5292377   0.2083333), wk =   0.0370370
        k(    9) = (   0.0833333   0.5292377   0.3472222), wk =   0.0370370
        k(   10) = (   0.0833333  -0.4330127   0.0694444), wk =   0.0370370
        k(   11) = (   0.0833333  -0.4330127   0.2083333), wk =   0.0370370
        k(   12) = (   0.0833333  -0.4330127   0.3472222), wk =   0.0370370
        k(   13) = (   0.0833333  -0.2405626   0.0694444), wk =   0.0370370
        k(   14) = (   0.0833333  -0.2405626   0.2083333), wk =   0.0370370
        k(   15) = (   0.0833333  -0.2405626   0.3472222), wk =   0.0370370
        k(   16) = (   0.0833333  -0.0481125   0.0694444), wk =   0.0185185
        k(   17) = (   0.0833333  -0.0481125   0.2083333), wk =   0.0185185
        k(   18) = (   0.0833333  -0.0481125   0.3472222), wk =   0.0185185
        k(   19) = (   0.2500000   0.4330127   0.0694444), wk =   0.0370370
        k(   20) = (   0.2500000   0.4330127   0.2083333), wk =   0.0370370
        k(   21) = (   0.2500000   0.4330127   0.3472222), wk =   0.0370370
        k(   22) = (   0.2500000   0.6254628   0.0694444), wk =   0.0370370
        k(   23) = (   0.2500000   0.6254628   0.2083333), wk =   0.0370370
        k(   24) = (   0.2500000   0.6254628   0.3472222), wk =   0.0370370
        k(   25) = (   0.2500000  -0.3367877   0.0694444), wk =   0.0370370
        k(   26) = (   0.2500000  -0.3367877   0.2083333), wk =   0.0370370
        k(   27) = (   0.2500000  -0.3367877   0.3472222), wk =   0.0370370
        k(   28) = (   0.2500000  -0.1443376   0.0694444), wk =   0.0185185
        k(   29) = (   0.2500000  -0.1443376   0.2083333), wk =   0.0185185
        k(   30) = (   0.2500000  -0.1443376   0.3472222), wk =   0.0185185
        k(   31) = (   0.4166667   0.7216878   0.0694444), wk =   0.0370370
        k(   32) = (   0.4166667   0.7216878   0.2083333), wk =   0.0370370
        k(   33) = (   0.4166667   0.7216878   0.3472222), wk =   0.0370370
        k(   34) = (   0.4166667  -0.2405626   0.0694444), wk =   0.0185185
        k(   35) = (   0.4166667  -0.2405626   0.2083333), wk =   0.0185185
        k(   36) = (   0.4166667  -0.2405626   0.3472222), wk =   0.0185185
        k(   37) = (  -0.0833333  -0.3367877   0.0694444), wk =   0.0370370
        k(   38) = (  -0.0833333  -0.3367877   0.2083333), wk =   0.0370370
        k(   39) = (  -0.0833333  -0.3367877   0.3472222), wk =   0.0370370
        k(   40) = (  -0.0833333  -0.5292377   0.0694444), wk =   0.0370370
        k(   41) = (  -0.0833333  -0.5292377   0.2083333), wk =   0.0370370
        k(   42) = (  -0.0833333  -0.5292377   0.3472222), wk =   0.0370370
        k(   43) = (  -0.0833333   0.4330127   0.0694444), wk =   0.0370370
        k(   44) = (  -0.0833333   0.4330127   0.2083333), wk =   0.0370370
        k(   45) = (  -0.0833333   0.4330127   0.3472222), wk =   0.0370370
        k(   46) = (  -0.0833333   0.2405626   0.0694444), wk =   0.0370370
        k(   47) = (  -0.0833333   0.2405626   0.2083333), wk =   0.0370370
        k(   48) = (  -0.0833333   0.2405626   0.3472222), wk =   0.0370370
        k(   49) = (  -0.0833333   0.0481125   0.0694444), wk =   0.0185185
        k(   50) = (  -0.0833333   0.0481125   0.2083333), wk =   0.0185185
        k(   51) = (  -0.0833333   0.0481125   0.3472222), wk =   0.0185185
        k(   52) = (  -0.2500000  -0.6254628   0.0694444), wk =   0.0370370
        k(   53) = (  -0.2500000  -0.6254628   0.2083333), wk =   0.0370370
        k(   54) = (  -0.2500000  -0.6254628   0.3472222), wk =   0.0370370
        k(   55) = (  -0.2500000   0.3367877   0.0694444), wk =   0.0370370
        k(   56) = (  -0.2500000   0.3367877   0.2083333), wk =   0.0370370
        k(   57) = (  -0.2500000   0.3367877   0.3472222), wk =   0.0370370
        k(   58) = (  -0.2500000   0.1443376   0.0694444), wk =   0.0185185
        k(   59) = (  -0.2500000   0.1443376   0.2083333), wk =   0.0185185
        k(   60) = (  -0.2500000   0.1443376   0.3472222), wk =   0.0185185
        k(   61) = (  -0.4166667   0.2405626   0.0694444), wk =   0.0185185
        k(   62) = (  -0.4166667   0.2405626   0.2083333), wk =   0.0185185
        k(   63) = (  -0.4166667   0.2405626   0.3472222), wk =   0.0185185

     Dense  grid:    26035 G-vectors     FFT dimensions: (  40,  40,  45)

     Largest allocated arrays     est. size (Mb)     dimensions
        Kohn-Sham Wavefunctions         0.84 Mb     (   4568,   12)
        NL pseudopotentials             0.63 Mb     (   4568,    9)
        Each V/rho on FFT grid          1.10 Mb     (  72000)
        Each G-vector array             0.20 Mb     (  26035)
        G-vector shells                 0.20 Mb     (  26035)
     Largest temporary arrays     est. size (Mb)     dimensions
        Auxiliary wavefunctions         3.35 Mb     (   4568,   48)
        Each subspace H/S matrix        0.04 Mb     (  48,  48)
        Each <psi_i|beta_j> matrix      0.00 Mb     (      9,   12)
        Arrays for rho mixing          17.58 Mb     (  72000,  16)

     Initial potential from superposition of free atoms

     starting charge   21.99998, renormalised to   24.00000
     Starting wfc are   14 randomized atomic wfcs

     total cpu time spent up to now is       43.3 secs

     per-process dynamical memory:    16.1 Mb

     Self-consistent Calculation

     iteration #  1     ecut=   100.00 Ry     beta=0.30
     Davidson diagonalization with overlap
     ethr =  1.00E-02,  avg # of iterations =  2.0

     total cpu time spent up to now is       63.8 secs

     total energy              =    -139.77634174 Ry
     Harris-Foulkes estimate   =    -139.85804412 Ry
     estimated scf accuracy    <       0.41024085 Ry

     iteration #  2     ecut=   100.00 Ry     beta=0.30
     Davidson diagonalization with overlap
     ethr =  1.71E-03,  avg # of iterations =  1.0

     total cpu time spent up to now is       77.7 secs

     total energy              =    -139.63487091 Ry
     Harris-Foulkes estimate   =    -139.78381823 Ry
     estimated scf accuracy    <       0.24598472 Ry

     iteration #  3     ecut=   100.00 Ry     beta=0.30
     Davidson diagonalization with overlap
     ethr =  1.02E-03,  avg # of iterations =  2.0

     total cpu time spent up to now is       94.1 secs

     total energy              =    -139.66005940 Ry
     Harris-Foulkes estimate   =    -139.67208858 Ry
     estimated scf accuracy    <       0.02531608 Ry

     iteration #  4     ecut=   100.00 Ry     beta=0.30
     Davidson diagonalization with overlap
     ethr =  1.05E-04,  avg # of iterations =  2.6

     total cpu time spent up to now is      112.1 secs

     total energy              =    -139.66468097 Ry
     Harris-Foulkes estimate   =    -139.66513041 Ry
     estimated scf accuracy    <       0.00279394 Ry

     iteration #  5     ecut=   100.00 Ry     beta=0.30
     Davidson diagonalization with overlap
     ethr =  1.16E-05,  avg # of iterations =  1.4

     total cpu time spent up to now is      125.8 secs

     total energy              =    -139.66423540 Ry
     Harris-Foulkes estimate   =    -139.66480842 Ry
     estimated scf accuracy    <       0.00166243 Ry

     iteration #  6     ecut=   100.00 Ry     beta=0.30
     Davidson diagonalization with overlap
     ethr =  6.93E-06,  avg # of iterations =  2.3

     total cpu time spent up to now is      142.2 secs

     total energy              =    -139.66440168 Ry
     Harris-Foulkes estimate   =    -139.66443825 Ry
     estimated scf accuracy    <       0.00010275 Ry

     iteration #  7     ecut=   100.00 Ry     beta=0.30
     Davidson diagonalization with overlap
     ethr =  4.28E-07,  avg # of iterations =  3.0

     total cpu time spent up to now is      160.8 secs

     total energy              =    -139.66443076 Ry
     Harris-Foulkes estimate   =    -139.66442904 Ry
     estimated scf accuracy    <       0.00001136 Ry

     iteration #  8     ecut=   100.00 Ry     beta=0.30
     Davidson diagonalization with overlap
     ethr =  4.74E-08,  avg # of iterations =  3.0

     total cpu time spent up to now is      180.1 secs

     total energy              =    -139.66443154 Ry
     Harris-Foulkes estimate   =    -139.66443566 Ry
     estimated scf accuracy    <       0.00001227 Ry

     iteration #  9     ecut=   100.00 Ry     beta=0.30
     Davidson diagonalization with overlap
     ethr =  4.74E-08,  avg # of iterations =  2.2

     total cpu time spent up to now is      196.8 secs

     End of self-consistent calculation

          k = 0.0833 0.1443 0.0694 (  4531 PWs)   bands (ev):

   -30.6285 -12.5270 -12.2661 -11.9733  -9.7029  -7.7872   3.1512   4.3234
     5.1207   5.6082   6.3512   6.7386

          k = 0.0833 0.1443 0.2083 (  4541 PWs)   bands (ev):

   -30.6263 -12.6738 -12.2191 -11.9706  -9.4047  -7.9853   2.8059   3.8746
     5.2115   5.7011   6.3846   6.7923

          k = 0.0833 0.1443 0.3472 (  4548 PWs)   bands (ev):

   -30.6241 -12.7900 -12.1934 -11.9678  -8.9788  -8.3217   2.7602   3.1581
     5.5089   5.9285   6.2047   6.6346

          k = 0.0833 0.3368 0.0694 (  4545 PWs)   bands (ev):

   -30.5845 -12.8141 -12.3257 -12.0637  -9.0859  -8.0574   2.9674   3.0700
     5.0117   5.7206   6.2936   6.7136

          k = 0.0833 0.3368 0.2083 (  4549 PWs)   bands (ev):

   -30.5827 -12.7496 -12.4129 -12.0598  -9.1353  -7.9584   2.2770   2.7477
     5.0082   6.2525   6.6569   6.7307

          k = 0.0833 0.3368 0.3472 (  4546 PWs)   bands (ev):

   -30.5808 -12.7007 -12.4842 -12.0565  -9.0814  -7.9923   2.0170   2.3833
     5.1104   6.3459   6.6439   6.9178

          k = 0.0833 0.5292 0.0694 (  4557 PWs)   bands (ev):

   -30.5520 -13.1266 -12.1654 -12.1208  -8.8172  -8.1666   2.2092   2.9822
     5.0207   5.9845   6.1338   6.5307

          k = 0.0833 0.5292 0.2083 (  4553 PWs)   bands (ev):

   -30.5504 -13.0690 -12.1865 -12.1311  -9.0356  -7.9765   1.8888   2.4821
     4.9698   6.2179   6.5143   6.7844

          k = 0.0833 0.5292 0.3472 (  4556 PWs)   bands (ev):

   -30.5489 -13.0148 -12.2108 -12.1328  -9.1642  -7.8910   1.6048   2.1898
     4.9347   6.4721   6.6697   6.8760

          k = 0.0833-0.4330 0.0694 (  4549 PWs)   bands (ev):

   -30.5639 -13.0309 -12.2086 -12.1071  -8.6369  -8.4247   2.5414   3.2563
     4.9818   5.6205   6.2835   6.4076

          k = 0.0833-0.4330 0.2083 (  4548 PWs)   bands (ev):

   -30.5623 -12.9869 -12.2452 -12.1070  -8.7612  -8.3209   2.2507   2.7083
     5.1713   5.8748   6.3989   6.5909

          k = 0.0833-0.4330 0.3472 (  4557 PWs)   bands (ev):

   -30.5606 -12.9224 -12.3022 -12.1019  -9.0289  -8.0456   1.8912   2.2337
     5.1035   6.2490   6.6953   6.7544

          k = 0.0833-0.2406 0.0694 (  4535 PWs)   bands (ev):

   -30.6081 -12.5866 -12.3981 -12.0157  -9.3347  -7.9830   3.1401   3.8806
     5.0614   5.4655   6.2909   6.5965

          k = 0.0833-0.2406 0.2083 (  4532 PWs)   bands (ev):

   -30.6061 -12.6390 -12.4056 -12.0126  -9.1294  -8.1232   2.6682   3.3935
     5.2840   5.8281   6.2313   6.7210

          k = 0.0833-0.2406 0.3472 (  4555 PWs)   bands (ev):

   -30.6041 -12.6797 -12.4197 -12.0090  -8.9335  -8.2470   2.4802   2.7143
     5.5276   5.8340   6.4060   6.8524

          k = 0.0833-0.0481 0.0694 (  4547 PWs)   bands (ev):

   -30.6402 -12.5714 -12.0701 -11.9505  -9.9432  -7.6838   3.1216   4.7377
     5.0798   5.6109   6.5275   6.8535

          k = 0.0833-0.0481 0.2083 (  4538 PWs)   bands (ev):

   -30.6379 -12.7285 -12.0473 -11.9481  -9.5743  -7.9284   2.9272   4.2624
     5.1894   5.5405   6.5085   6.7041

          k = 0.0833-0.0481 0.3472 (  4540 PWs)   bands (ev):

   -30.6356 -12.8610 -12.0325 -11.9458  -9.0254  -8.3728   3.0007   3.4788
     5.4784   5.9826   6.1091   6.3326

          k = 0.2500 0.4330 0.0694 (  4559 PWs)   bands (ev):

   -30.5520 -12.9426 -12.4169 -12.1253  -8.5756  -8.3321   2.6762   2.7091
     4.3952   5.9319   6.2653   6.7553

          k = 0.2500 0.4330 0.2083 (  4556 PWs)   bands (ev):

   -30.5505 -12.8921 -12.4112 -12.1555  -8.7519  -8.2095   2.2678   2.3438
     4.6764   6.2321   6.4839   6.6715

          k = 0.2500 0.4330 0.3472 (  4549 PWs)   bands (ev):

   -30.5489 -12.8372 -12.4115 -12.1823  -8.8759  -8.1413   1.9826   2.0194
     4.9722   6.1159   6.6174   6.8650

          k = 0.2500 0.6255 0.0694 (  4559 PWs)   bands (ev):

   -30.5433 -12.9260 -12.5315 -12.1008  -8.4655  -8.3704   2.5023   2.6761
     4.2099   6.0834   6.2207   6.7897

          k = 0.2500 0.6255 0.2083 (  4568 PWs)   bands (ev):

   -30.5418 -12.8824 -12.5086 -12.1298  -8.6249  -8.2987   2.1943   2.3175
     4.5023   6.2778   6.5049   6.6412

          k = 0.2500 0.6255 0.3472 (  4556 PWs)   bands (ev):

   -30.5403 -12.8349 -12.4876 -12.1584  -8.7555  -8.2557   1.9154   2.0406
     4.8909   6.0530   6.6750   6.7646

          k = 0.2500-0.3368 0.0694 (  4544 PWs)   bands (ev):

   -30.5671 -12.9110 -12.3114 -12.1329  -8.8270  -8.1943   2.8016   2.8926
     4.7120   5.7939   6.2653   6.7387

          k = 0.2500-0.3368 0.2083 (  4551 PWs)   bands (ev):

   -30.5655 -12.8520 -12.3563 -12.1413  -8.9573  -8.0637   2.2465   2.5215
     4.8883   6.2809   6.4834   6.7063

          k = 0.2500-0.3368 0.3472 (  4549 PWs)   bands (ev):

   -30.5638 -12.7948 -12.4037 -12.1447  -9.0079  -8.0273   1.9477   2.1845
     5.0597   6.2236   6.6261   6.9368

          k = 0.2500-0.1443 0.0694 (  4543 PWs)   bands (ev):

   -30.5995 -12.6726 -12.3848 -12.0152  -9.2848  -7.9596   3.0596   3.3553
     5.1049   5.6686   6.3742   6.7165

          k = 0.2500-0.1443 0.2083 (  4539 PWs)   bands (ev):

   -30.5975 -12.6088 -12.4934 -12.0119  -9.2342  -7.9345   2.3994   3.0025
     5.0418   6.1539   6.7361   6.7750

          k = 0.2500-0.1443 0.3472 (  4560 PWs)   bands (ev):

   -30.5956 -12.6183 -12.5278 -12.0089  -9.0767  -8.0487   2.1983   2.5767
     5.1518   6.4473   6.5815   6.7761

          k = 0.4167 0.7217 0.0694 (  4568 PWs)   bands (ev):

   -30.5465 -13.0549 -12.3326 -12.1102  -8.6394  -8.2619   2.3211   2.8441
     4.5701   6.0571   6.1527   6.6737

          k = 0.4167 0.7217 0.2083 (  4565 PWs)   bands (ev):

   -30.5450 -13.0046 -12.3189 -12.1408  -8.8283  -8.1377   2.0346   2.4172
     4.7438   6.1729   6.4833   6.7442

          k = 0.4167 0.7217 0.3472 (  4544 PWs)   bands (ev):

   -30.5434 -12.9526 -12.3043 -12.1715  -8.9752  -8.0574   1.7469   2.1280
     4.9217   6.2117   6.7178   6.7745

          k = 0.4167-0.2406 0.0694 (  4549 PWs)   bands (ev):

   -30.5584 -13.1091 -12.1663 -12.0789  -8.9186  -8.1129   2.2543   3.0208
     5.2071   6.0154   6.1198   6.4646

          k = 0.4167-0.2406 0.2083 (  4544 PWs)   bands (ev):

   -30.5567 -13.0468 -12.2149 -12.0749  -9.1354  -7.8949   1.8637   2.5075
     5.0276   6.2857   6.6428   6.7602

          k = 0.4167-0.2406 0.3472 (  4565 PWs)   bands (ev):

   -30.5552 -12.9940 -12.2537 -12.0710  -9.2240  -7.8347   1.5920   2.2224
     4.9500   6.5717   6.6840   6.9253

          k =-0.0833-0.3368 0.0694 (  4545 PWs)   bands (ev):

   -30.5845 -12.8365 -12.3047 -12.0650  -8.9440  -8.2258   2.9206   3.5197
     4.9501   5.4923   6.2976   6.4730

          k =-0.0833-0.3368 0.2083 (  4549 PWs)   bands (ev):

   -30.5827 -12.8077 -12.3577 -12.0621  -8.8477  -8.3006   2.5118   2.9651
     5.2811   5.8341   6.2731   6.6052

          k =-0.0833-0.3368 0.3472 (  4546 PWs)   bands (ev):

   -30.5808 -12.7446 -12.4417 -12.0574  -8.9513  -8.1504   2.2486   2.3184
     5.3031   6.0453   6.5769   6.8439

          k =-0.0833-0.5292 0.0694 (  4557 PWs)   bands (ev):

   -30.5520 -13.1317 -12.1582 -12.1240  -8.7025  -8.2944   2.2501   3.0785
     5.0192   5.8114   6.2135   6.4488

          k =-0.0833-0.5292 0.2083 (  4553 PWs)   bands (ev):

   -30.5504 -13.0806 -12.1667 -12.1417  -8.9082  -8.1303   1.9913   2.5637
     5.0451   6.0218   6.4768   6.6864

          k =-0.0833-0.5292 0.3472 (  4556 PWs)   bands (ev):

   -30.5489 -13.0214 -12.2021 -12.1362  -9.1175  -7.9511   1.6613   2.2062
     4.9769   6.3693   6.7159   6.7841

          k =-0.0833 0.4330 0.0694 (  4549 PWs)   bands (ev):

   -30.5639 -13.0162 -12.2235 -12.1040  -8.9132  -8.1189   2.4720   2.9709
     5.0125   5.9212   6.1893   6.6273

          k =-0.0833 0.4330 0.2083 (  4548 PWs)   bands (ev):

   -30.5623 -12.9529 -12.2789 -12.1018  -9.0969  -7.9251   2.0012   2.5146
     4.9604   6.3418   6.5499   6.8084

          k =-0.0833 0.4330 0.3472 (  4557 PWs)   bands (ev):

   -30.5606 -12.9019 -12.3222 -12.0997  -9.1466  -7.8972   1.7313   2.2235
     4.9817   6.5388   6.5891   6.9444

          k =-0.0833 0.2406 0.0694 (  4535 PWs)   bands (ev):

   -30.6081 -12.5506 -12.4331 -12.0153  -9.3743  -7.9316   3.1084   3.6998
     5.0399   5.5820   6.3426   6.7536

          k =-0.0833 0.2406 0.2083 (  4532 PWs)   bands (ev):

   -30.6061 -12.5756 -12.4671 -12.0119  -9.2298  -7.9986   2.5660   3.2514
     5.0971   6.0163   6.5567   6.7606

          k =-0.0833 0.2406 0.3472 (  4555 PWs)   bands (ev):

   -30.6041 -12.6572 -12.4413 -12.0087  -9.0086  -8.1595   2.3941   2.7129
     5.2984   6.1202   6.5508   6.7765

          k =-0.0833 0.0481 0.0694 (  4547 PWs)   bands (ev):

   -30.6402 -12.5734 -12.0684 -11.9506  -9.9394  -7.6893   3.1331   4.7121
     5.1702   5.5932   6.5534   6.7187

          k =-0.0833 0.0481 0.2083 (  4538 PWs)   bands (ev):

   -30.6379 -12.7312 -12.0449 -11.9484  -9.5636  -7.9424   2.9430   4.3028
     5.2965   5.4480   6.3578   6.7549

          k =-0.0833 0.0481 0.3472 (  4540 PWs)   bands (ev):

   -30.6355 -12.8621 -12.0316 -11.9459  -9.0109  -8.3890   3.0049   3.4961
     5.6404   5.8316   5.9361   6.4686

          k =-0.2500-0.6255 0.0694 (  4559 PWs)   bands (ev):

   -30.5433 -12.9241 -12.5333 -12.1008  -8.5267  -8.3071   2.4945   2.6622
     4.2177   6.1071   6.1987   6.8102

          k =-0.2500-0.6255 0.2083 (  4568 PWs)   bands (ev):

   -30.5418 -12.8782 -12.5127 -12.1296  -8.6743  -8.2451   2.1720   2.3096
     4.4992   6.3452   6.4522   6.6712

          k =-0.2500-0.6255 0.3472 (  4556 PWs)   bands (ev):

   -30.5403 -12.8325 -12.4900 -12.1582  -8.7731  -8.2360   1.9032   2.0409
     4.8773   6.0923   6.6493   6.7806

          k =-0.2500 0.3368 0.0694 (  4544 PWs)   bands (ev):

   -30.5671 -12.9198 -12.3017 -12.1349  -8.7103  -8.3239   2.7625   3.0986
     4.6612   5.7106   6.2982   6.6212

          k =-0.2500 0.3368 0.2083 (  4551 PWs)   bands (ev):

   -30.5655 -12.8733 -12.3324 -12.1460  -8.7950  -8.2520   2.3745   2.5908
     4.9643   6.0394   6.5296   6.5463

          k =-0.2500 0.3368 0.3472 (  4549 PWs)   bands (ev):

   -30.5638 -12.8089 -12.3884 -12.1469  -8.9451  -8.1034   2.0746   2.1324
     5.1462   6.0489   6.6677   6.8744

          k =-0.2500 0.1443 0.0694 (  4543 PWs)   bands (ev):

   -30.5995 -12.7104 -12.3499 -12.0155  -9.1773  -8.0947   3.0815   3.7955
     5.2048   5.3159   6.2868   6.4267

          k =-0.2500 0.1443 0.2083 (  4539 PWs)   bands (ev):

   -30.5975 -12.7176 -12.3897 -12.0125  -8.9752  -8.2503   2.6376   3.2938
     5.5544   5.5972   6.1062   6.6635

          k =-0.2500 0.1443 0.3472 (  4560 PWs)   bands (ev):

   -30.5956 -12.6917 -12.4568 -12.0091  -8.9226  -8.2321   2.4222   2.5437
     5.4073   6.1513   6.2486   6.8681

          k =-0.4167 0.2406 0.0694 (  4549 PWs)   bands (ev):

   -30.5584 -13.1202 -12.1580 -12.0791  -8.6848  -8.3743   2.3337   3.2525
     5.3290   5.5052   6.2720   6.3077

          k =-0.4167 0.2406 0.2083 (  4544 PWs)   bands (ev):

   -30.5567 -13.0720 -12.1952 -12.0752  -8.8686  -8.2177   2.0816   2.6914
     5.2172   5.9365   6.3833   6.6182

          k =-0.4167 0.2406 0.3472 (  4565 PWs)   bands (ev):

   -30.5552 -13.0086 -12.2418 -12.0712  -9.1282  -7.9590   1.7187   2.2522
     5.0280   6.5605   6.5711   6.7378

!    total energy              =    -139.66443263 Ry
     Harris-Foulkes estimate   =    -139.66443299 Ry
     estimated scf accuracy    <       0.00000055 Ry

     The total energy is the sum of the following terms:

     one-electron contribution =     -31.97812452 Ry
     hartree contribution      =      28.59564857 Ry
     xc contribution           =     -25.69828264 Ry
     ewald contribution        =    -110.58367403 Ry

     convergence has been achieved in   9 iterations

     Forces acting on atoms (Ry/au):

     atom    1 type  3   force =     0.00000000    0.00000000   -0.00064417
     atom    2 type  2   force =     0.00000000   -0.00000000    0.04775560
     atom    3 type  2   force =     0.00000000    0.00000000   -0.04751270
     atom    4 type  1   force =     0.00000000    0.00000000   -0.14509409
     atom    5 type  1   force =     0.00000000   -0.00000000    0.14549537

     Total force =     0.216240     Total SCF correction =     0.001227


     entering subroutine stress ...

          total   stress  (Ry/bohr**3)                   (kbar)     P=  146.36
   0.00154714   0.00000000   0.00000000        227.59      0.00      0.00
   0.00000000   0.00154714  -0.00000000          0.00    227.59     -0.00
   0.00000000  -0.00000000  -0.00010946          0.00     -0.00    -16.10


     BFGS Geometry Optimization

     number of scf cycles    =   1
     number of bfgs steps    =   0

     enthalpy new            =    -138.7486741482 Ry

     new trust radius        =       0.2879371438 bohr
     new conv_thr            =       0.0000010000 Ry

     new unit-cell volume =    223.56291 a.u.^3 (    33.12861 Ang^3 )

CELL_PARAMETERS (alat=  6.37640000)
   0.953705132  -0.000000000  -0.000000000
  -0.476852566   0.825932872  -0.000000000
   0.000000000  -0.000000000   1.094748164

ATOMIC_POSITIONS (crystal)
Ca       0.000000000   0.000000000  -0.000084187
O        0.333333333   0.666666667   0.293241191
O        0.666666667   0.333333333   0.705790554
H        0.333333333   0.666666667   0.655037617
H        0.666666667   0.333333333   0.344014826



     Writing output data file CaOH2_ambient.save
     NEW-OLD atomic charge density approx. for the potential
     NEW k-points:
        k(    1) = (   0.0873785   0.1513440   0.0761210), wk =   0.0370370
        k(    2) = (   0.0873785   0.1513440   0.2283630), wk =   0.0370370
        k(    3) = (   0.0873785   0.1513440   0.3806050), wk =   0.0370370
        k(    4) = (   0.0873785   0.3531360   0.0761210), wk =   0.0370370
        k(    5) = (   0.0873785   0.3531360   0.2283630), wk =   0.0370370
        k(    6) = (   0.0873785   0.3531360   0.3806050), wk =   0.0370370
        k(    7) = (   0.0873785   0.5549281   0.0761210), wk =   0.0370370
        k(    8) = (   0.0873785   0.5549281   0.2283630), wk =   0.0370370
        k(    9) = (   0.0873785   0.5549281   0.3806050), wk =   0.0370370
        k(   10) = (   0.0873785  -0.4540321   0.0761210), wk =   0.0370370
        k(   11) = (   0.0873785  -0.4540321   0.2283630), wk =   0.0370370
        k(   12) = (   0.0873785  -0.4540321   0.3806050), wk =   0.0370370
        k(   13) = (   0.0873785  -0.2522400   0.0761210), wk =   0.0370370
        k(   14) = (   0.0873785  -0.2522400   0.2283630), wk =   0.0370370
        k(   15) = (   0.0873785  -0.2522400   0.3806050), wk =   0.0370370
        k(   16) = (   0.0873785  -0.0504480   0.0761210), wk =   0.0185185
        k(   17) = (   0.0873785  -0.0504480   0.2283630), wk =   0.0185185
        k(   18) = (   0.0873785  -0.0504480   0.3806050), wk =   0.0185185
        k(   19) = (   0.2621355   0.4540321   0.0761210), wk =   0.0370370
        k(   20) = (   0.2621355   0.4540321   0.2283630), wk =   0.0370370
        k(   21) = (   0.2621355   0.4540321   0.3806050), wk =   0.0370370
        k(   22) = (   0.2621355   0.6558241   0.0761210), wk =   0.0370370
        k(   23) = (   0.2621355   0.6558241   0.2283630), wk =   0.0370370
        k(   24) = (   0.2621355   0.6558241   0.3806050), wk =   0.0370370
        k(   25) = (   0.2621355  -0.3531360   0.0761210), wk =   0.0370370
        k(   26) = (   0.2621355  -0.3531360   0.2283630), wk =   0.0370370
        k(   27) = (   0.2621355  -0.3531360   0.3806050), wk =   0.0370370
        k(   28) = (   0.2621355  -0.1513440   0.0761210), wk =   0.0185185
        k(   29) = (   0.2621355  -0.1513440   0.2283630), wk =   0.0185185
        k(   30) = (   0.2621355  -0.1513440   0.3806050), wk =   0.0185185
        k(   31) = (   0.4368925   0.7567201   0.0761210), wk =   0.0370370
        k(   32) = (   0.4368925   0.7567201   0.2283630), wk =   0.0370370
        k(   33) = (   0.4368925   0.7567201   0.3806050), wk =   0.0370370
        k(   34) = (   0.4368925  -0.2522400   0.0761210), wk =   0.0185185
        k(   35) = (   0.4368925  -0.2522400   0.2283630), wk =   0.0185185
        k(   36) = (   0.4368925  -0.2522400   0.3806050), wk =   0.0185185
        k(   37) = (  -0.0873785  -0.3531360   0.0761210), wk =   0.0370370
        k(   38) = (  -0.0873785  -0.3531360   0.2283630), wk =   0.0370370
        k(   39) = (  -0.0873785  -0.3531360   0.3806050), wk =   0.0370370
        k(   40) = (  -0.0873785  -0.5549281   0.0761210), wk =   0.0370370
        k(   41) = (  -0.0873785  -0.5549281   0.2283630), wk =   0.0370370
        k(   42) = (  -0.0873785  -0.5549281   0.3806050), wk =   0.0370370
        k(   43) = (  -0.0873785   0.4540321   0.0761210), wk =   0.0370370
        k(   44) = (  -0.0873785   0.4540321   0.2283630), wk =   0.0370370
        k(   45) = (  -0.0873785   0.4540321   0.3806050), wk =   0.0370370
        k(   46) = (  -0.0873785   0.2522400   0.0761210), wk =   0.0370370
        k(   47) = (  -0.0873785   0.2522400   0.2283630), wk =   0.0370370
        k(   48) = (  -0.0873785   0.2522400   0.3806050), wk =   0.0370370
        k(   49) = (  -0.0873785   0.0504480   0.0761210), wk =   0.0185185
        k(   50) = (  -0.0873785   0.0504480   0.2283630), wk =   0.0185185
        k(   51) = (  -0.0873785   0.0504480   0.3806050), wk =   0.0185185
        k(   52) = (  -0.2621355  -0.6558241   0.0761210), wk =   0.0370370
        k(   53) = (  -0.2621355  -0.6558241   0.2283630), wk =   0.0370370
        k(   54) = (  -0.2621355  -0.6558241   0.3806050), wk =   0.0370370
        k(   55) = (  -0.2621355   0.3531360   0.0761210), wk =   0.0370370
        k(   56) = (  -0.2621355   0.3531360   0.2283630), wk =   0.0370370
        k(   57) = (  -0.2621355   0.3531360   0.3806050), wk =   0.0370370
        k(   58) = (  -0.2621355   0.1513440   0.0761210), wk =   0.0185185
        k(   59) = (  -0.2621355   0.1513440   0.2283630), wk =   0.0185185
        k(   60) = (  -0.2621355   0.1513440   0.3806050), wk =   0.0185185
        k(   61) = (  -0.4368925   0.2522400   0.0761210), wk =   0.0185185
        k(   62) = (  -0.4368925   0.2522400   0.2283630), wk =   0.0185185
        k(   63) = (  -0.4368925   0.2522400   0.3806050), wk =   0.0185185
     extrapolated charge   19.48685, renormalised to   24.00000

     total cpu time spent up to now is      294.6 secs

     per-process dynamical memory:    21.2 Mb

     Self-consistent Calculation

     iteration #  1     ecut=   100.00 Ry     beta=0.30
     Davidson diagonalization with overlap
     ethr =  1.00E-06,  avg # of iterations =  7.0

     total cpu time spent up to now is      334.8 secs

     total energy              =    -138.27413839 Ry
     Harris-Foulkes estimate   =    -143.18659557 Ry
     estimated scf accuracy    <       2.59320506 Ry

     iteration #  2     ecut=   100.00 Ry     beta=0.30
     Davidson diagonalization with overlap
     ethr =  1.00E-02,  avg # of iterations =  3.0

     total cpu time spent up to now is      355.7 secs

     total energy              =    -139.64753638 Ry
     Harris-Foulkes estimate   =    -139.67473066 Ry
     estimated scf accuracy    <       0.15726140 Ry

     iteration #  3     ecut=   100.00 Ry     beta=0.30
     Davidson diagonalization with overlap
     ethr =  6.55E-04,  avg # of iterations =  1.3

     total cpu time spent up to now is      369.7 secs

     total energy              =    -139.59839438 Ry
     Harris-Foulkes estimate   =    -139.65273864 Ry
     estimated scf accuracy    <       0.08610049 Ry

     iteration #  4     ecut=   100.00 Ry     beta=0.30
     Davidson diagonalization with overlap
     ethr =  3.59E-04,  avg # of iterations =  3.0

     total cpu time spent up to now is      388.9 secs

     total energy              =    -139.62371831 Ry
     Harris-Foulkes estimate   =    -139.64252364 Ry
     estimated scf accuracy    <       0.04494034 Ry

     iteration #  5     ecut=   100.00 Ry     beta=0.30
     Davidson diagonalization with overlap
     ethr =  1.87E-04,  avg # of iterations =  2.1

     total cpu time spent up to now is      405.9 secs

     total energy              =    -139.62983146 Ry
     Harris-Foulkes estimate   =    -139.63076049 Ry
     estimated scf accuracy    <       0.00156072 Ry

     iteration #  6     ecut=   100.00 Ry     beta=0.30
     Davidson diagonalization with overlap
     ethr =  6.50E-06,  avg # of iterations =  3.0

     total cpu time spent up to now is      427.4 secs

     total energy              =    -139.62959853 Ry
     Harris-Foulkes estimate   =    -139.63095272 Ry
     estimated scf accuracy    <       0.00301993 Ry

     iteration #  7     ecut=   100.00 Ry     beta=0.30
     Davidson diagonalization with overlap
     ethr =  6.50E-06,  avg # of iterations =  3.0

     total cpu time spent up to now is      446.1 secs

     total energy              =    -139.63009287 Ry
     Harris-Foulkes estimate   =    -139.63010205 Ry
     estimated scf accuracy    <       0.00002169 Ry

     iteration #  8     ecut=   100.00 Ry     beta=0.30
     Davidson diagonalization with overlap
     ethr =  9.04E-08,  avg # of iterations =  2.7

     total cpu time spent up to now is      464.5 secs

     End of self-consistent calculation

          k = 0.0874 0.1513 0.0761 (  4531 PWs)   bands (ev):

   -27.7125 -10.0598  -9.6930  -9.0058  -7.7116  -4.9964   4.7653   6.1370
     7.0697   7.7837   8.8596   9.4244

          k = 0.0874 0.1513 0.2284 (  4541 PWs)   bands (ev):

   -27.7036 -10.4842  -9.4977  -8.9971  -7.2344  -5.2380   4.3257   5.6845
     7.1876   7.9449   8.7912   9.4301

          k = 0.0874 0.1513 0.3806 (  4548 PWs)   bands (ev):

   -27.6946 -10.7556  -9.4180  -8.9882  -6.6166  -5.6631   4.2343   4.8837
     7.5626   8.1247   8.6257   9.1921

          k = 0.0874 0.3531 0.0761 (  4545 PWs)   bands (ev):

   -27.6265 -10.6481  -9.6278  -9.1600  -6.8999  -5.4331   4.6507   4.8547
     7.0077   8.4360   8.5567   9.4260

          k = 0.0874 0.3531 0.2284 (  4549 PWs)   bands (ev):

   -27.6193 -10.4690  -9.8995  -9.1482  -6.9748  -5.2154   3.7878   4.4569
     6.9420   8.7450   9.2842   9.4466

          k = 0.0874 0.3531 0.3806 (  4546 PWs)   bands (ev):

   -27.6121 -10.2572 -10.1697  -9.1370  -6.9338  -5.2279   3.4729   4.0521
     7.0322   8.7003   9.3377   9.6696

          k = 0.0874 0.5549 0.0761 (  4557 PWs)   bands (ev):

   -27.5623 -11.0868  -9.3711  -9.2220  -6.7062  -5.5680   3.8901   4.8022
     7.0245   8.2640   8.9424   9.3158

          k = 0.0874 0.5549 0.2284 (  4553 PWs)   bands (ev):

   -27.5564 -10.9241  -9.4290  -9.2663  -7.0570  -5.3306   3.5748   4.1542
     6.9229   8.6088   9.2777   9.5813

          k = 0.0874 0.5549 0.3806 (  4556 PWs)   bands (ev):

   -27.5504 -10.7568  -9.4938  -9.2766  -7.3382  -5.2230   3.1491   3.9612
     6.8142   9.0194   9.4072   9.5556

          k = 0.0874-0.4540 0.0761 (  4549 PWs)   bands (ev):

   -27.5860 -10.9677  -9.4009  -9.2309  -6.3702  -5.9956   4.3538   5.1067
     7.0052   8.0560   8.8103   9.0732

          k = 0.0874-0.4540 0.2284 (  4548 PWs)   bands (ev):

   -27.5795 -10.8487  -9.4974  -9.2398  -6.5976  -5.8534   4.1189   4.3905
     7.1945   8.2710   9.0117   9.1995

          k = 0.0874-0.4540 0.3806 (  4557 PWs)   bands (ev):

   -27.5731 -10.6544  -9.6935  -9.2197  -7.0352  -5.4144   3.4896   3.9700
     7.0305   8.7328   9.2952   9.4668

          k = 0.0874-0.2522 0.0761 (  4535 PWs)   bands (ev):

   -27.6728 -10.3451  -9.7087  -9.0803  -7.1854  -5.3398   4.8473   5.7048
     7.1228   7.9394   8.5688   9.2163

          k = 0.0874-0.2522 0.2284 (  4532 PWs)   bands (ev):

   -27.6647 -10.4552  -9.7528  -9.0703  -6.8645  -5.5006   4.2679   5.1948
     7.3370   8.1559   8.6811   9.2932

          k = 0.0874-0.2522 0.3806 (  4555 PWs)   bands (ev):

   -27.6565 -10.5498  -9.7939  -9.0580  -6.6171  -5.5735   3.9736   4.4079
     7.5727   8.0425   8.9312   9.5183

          k = 0.0874-0.0504 0.0761 (  4547 PWs)   bands (ev):

   -27.7352 -10.0591  -9.3777  -8.9660  -8.1352  -4.8123   4.7009   6.5408
     6.9844   7.5215   9.1737   9.5733

          k = 0.0874-0.0504 0.2284 (  4538 PWs)   bands (ev):

   -27.7258 -10.5601  -9.1910  -8.9582  -7.5168  -5.1316   4.4392   6.0711
     7.1320   7.6727   8.9343   9.3452

          k = 0.0874-0.0504 0.3806 (  4540 PWs)   bands (ev):

   -27.7164 -10.8793  -9.1263  -8.9510  -6.6773  -5.7430   4.4896   5.2438
     7.5335   8.2815   8.3648   8.7838

          k = 0.2621 0.4540 0.0761 (  4559 PWs)   bands (ev):

   -27.5625 -10.8127  -9.8681  -9.2266  -6.1818  -5.8447   4.3875   4.4855
     6.2662   8.6166   8.7735   9.6091

          k = 0.2621 0.4540 0.2284 (  4556 PWs)   bands (ev):

   -27.5566 -10.6679  -9.8483  -9.3170  -6.5335  -5.6880   3.9561   4.0722
     6.6569   8.8529   8.9445   9.5040

          k = 0.2621 0.4540 0.3806 (  4549 PWs)   bands (ev):

   -27.5506 -10.4886  -9.8691  -9.3872  -6.8001  -5.6325   3.6549   3.7244
     7.0083   8.7127   9.1039   9.5924

          k = 0.2621 0.6558 0.0761 (  4559 PWs)   bands (ev):

   -27.5452 -10.7684 -10.0841  -9.1825  -6.0493  -5.8655   4.2199   4.3983
     6.0465   8.7355   8.8391   9.7065

          k = 0.2621 0.6558 0.2284 (  4568 PWs)   bands (ev):

   -27.5396 -10.6406 -10.0085  -9.2672  -6.3753  -5.8456   3.9525   4.0168
     6.4595   8.8460   9.0899   9.4716

          k = 0.2621 0.6558 0.3806 (  4556 PWs)   bands (ev):

   -27.5340 -10.4899  -9.9397  -9.3503  -6.6757  -5.8632   3.6224   3.8075
     6.9451   8.7447   9.1496   9.4002

          k = 0.2621-0.3531 0.0761 (  4544 PWs)   bands (ev):

   -27.5923 -10.7823  -9.6477  -9.2560  -6.5426  -5.6430   4.5035   4.6892
     6.6650   8.4383   8.6957   9.5080

          k = 0.2621-0.3531 0.2284 (  4551 PWs)   bands (ev):

   -27.5858 -10.6149  -9.7837  -9.2887  -6.7797  -5.4229   3.8467   4.2373
     6.8666   8.7977   9.0671   9.4704

          k = 0.2621-0.3531 0.3806 (  4549 PWs)   bands (ev):

   -27.5792 -10.4129  -9.9628  -9.2937  -6.9097  -5.3676   3.5001   3.8657
     7.0429   8.6576   9.2527   9.7035

          k = 0.2621-0.1513 0.0761 (  4543 PWs)   bands (ev):

   -27.6559 -10.4438  -9.7201  -9.0754  -7.1503  -5.2786   4.7101   5.1495
     7.0728   8.3702   8.5674   9.4374

          k = 0.2621-0.1513 0.2284 (  4539 PWs)   bands (ev):

   -27.6481 -10.3156  -9.9938  -9.0645  -7.0579  -5.1534   3.8704   4.7256
     6.9487   8.6549   9.2109   9.5506

          k = 0.2621-0.1513 0.3806 (  4560 PWs)   bands (ev):

   -27.6403 -10.3817 -10.0294  -9.0547  -6.8604  -5.2636   3.6239   4.2446
     7.0618   8.7368   9.2750   9.4829

          k = 0.4369 0.7567 0.0761 (  4568 PWs)   bands (ev):

   -27.5515 -10.9730  -9.7170  -9.1982  -6.3714  -5.7034   4.0209   4.6234
     6.4673   8.5152   8.8876   9.5361

          k = 0.4369 0.7567 0.2284 (  4565 PWs)   bands (ev):

   -27.5457 -10.8295  -9.6724  -9.2873  -6.7155  -5.5931   3.7844   4.0996
     6.7171   8.6136   9.1844   9.5442

          k = 0.4369 0.7567 0.3806 (  4544 PWs)   bands (ev):

   -27.5400 -10.6686  -9.6222  -9.3775  -7.0366  -5.5242   3.3784   3.9100
     6.8987   8.8561   9.2948   9.4243

          k = 0.4369-0.2522 0.0761 (  4549 PWs)   bands (ev):

   -27.5749 -11.0645  -9.3186  -9.1824  -6.8596  -5.4923   3.9266   4.8343
     7.2658   8.2165   9.0443   9.1187

          k = 0.4369-0.2522 0.2284 (  4544 PWs)   bands (ev):

   -27.5688 -10.8873  -9.4913  -9.1691  -7.1820  -5.1790   3.4754   4.1733
     6.9515   8.6949   9.4292   9.5520

          k = 0.4369-0.2522 0.3806 (  4565 PWs)   bands (ev):

   -27.5626 -10.7196  -9.6168  -9.1563  -7.3846  -5.0948   3.0833   3.9648
     6.7913   9.0284   9.5184   9.6357

          k =-0.0874-0.3531 0.0761 (  4545 PWs)   bands (ev):

   -27.6265 -10.7032  -9.5538  -9.1659  -6.6742  -5.7506   4.7338   5.3544
     7.0448   7.9548   8.6569   9.0753

          k =-0.0874-0.3531 0.2284 (  4549 PWs)   bands (ev):

   -27.6193 -10.6332  -9.6976  -9.1575  -6.5506  -5.8300   4.2655   4.7153
     7.3487   8.2094   8.8374   9.1138

          k =-0.0874-0.3531 0.3806 (  4546 PWs)   bands (ev):

   -27.6121 -10.4687  -9.9392  -9.1407  -6.7672  -5.4931   3.8128   4.0005
     7.2851   8.3772   9.1794   9.5449

          k =-0.0874-0.5549 0.0761 (  4557 PWs)   bands (ev):

   -27.5623 -11.1002  -9.3502  -9.2255  -6.5633  -5.7534   3.9891   4.9225
     7.0197   8.1684   8.8925   9.2143

          k =-0.0874-0.5549 0.2284 (  4553 PWs)   bands (ev):

   -27.5564 -10.9585  -9.3364  -9.3137  -6.8946  -5.5803   3.7937   4.2484
     7.0259   8.4121   9.1632   9.4194

          k =-0.0874-0.5549 0.3806 (  4556 PWs)   bands (ev):

   -27.5504 -10.7801  -9.4470  -9.2925  -7.2854  -5.3212   3.2378   4.0019
     6.8692   8.9479   9.3533   9.4691

          k =-0.0874 0.4540 0.0761 (  4549 PWs)   bands (ev):

   -27.5860 -10.9298  -9.4618  -9.2188  -6.7612  -5.5066   4.1523   4.7565
     7.0158   8.3562   8.8426   9.3683

          k =-0.0874 0.4540 0.2284 (  4548 PWs)   bands (ev):

   -27.5796 -10.7464  -9.6494  -9.2177  -7.0430  -5.2049   3.5742   4.1918
     6.8981   8.7601   9.3174   9.5920

          k =-0.0874 0.4540 0.3806 (  4557 PWs)   bands (ev):

   -27.5731 -10.5752  -9.7983  -9.2111  -7.1750  -5.1689   3.2320   3.9281
     6.8710   8.9533   9.3650   9.7019

          k =-0.0874 0.2522 0.0761 (  4535 PWs)   bands (ev):

   -27.6728 -10.2877  -9.7760  -9.0785  -7.2413  -5.2399   4.7627   5.5088
     7.0192   8.1632   8.5784   9.4523

          k =-0.0874 0.2522 0.2284 (  4532 PWs)   bands (ev):

   -27.6647 -10.3521  -9.8734  -9.0674  -7.0120  -5.2645   4.0749   5.0076
     7.0417   8.4627   9.0169   9.4330

          k =-0.0874 0.2522 0.3806 (  4555 PWs)   bands (ev):

   -27.6566 -10.5103  -9.8415  -9.0567  -6.7219  -5.4239   3.8401   4.3945
     7.2754   8.3814   9.1560   9.4274

          k =-0.0874 0.0504 0.0761 (  4547 PWs)   bands (ev):

   -27.7352 -10.0699  -9.3632  -8.9665  -8.1328  -4.8235   4.7203   6.5186
     7.1141   7.4425   9.3056   9.3581

          k =-0.0874 0.0504 0.2284 (  4538 PWs)   bands (ev):

   -27.7258 -10.5675  -9.1797  -8.9593  -7.5030  -5.1593   4.4662   6.1219
     7.3070   7.5083   8.8021   9.3645

          k =-0.0874 0.0504 0.3806 (  4540 PWs)   bands (ev):

   -27.7164 -10.8817  -9.1226  -8.9515  -6.6540  -5.7727   4.4985   5.2673
     7.7525   8.0974   8.1384   8.9400

          k =-0.2621-0.6558 0.0761 (  4559 PWs)   bands (ev):

   -27.5452 -10.7632 -10.0900  -9.1824  -6.1338  -5.7740   4.1746   4.4086
     6.0584   8.7286   8.8485   9.7353

          k =-0.2621-0.6558 0.2284 (  4568 PWs)   bands (ev):

   -27.5396 -10.6272 -10.0244  -9.2664  -6.4437  -5.7638   3.8990   4.0181
     6.4566   8.8814   9.1000   9.4903

          k =-0.2621-0.6558 0.3806 (  4556 PWs)   bands (ev):

   -27.5340 -10.4806  -9.9514  -9.3489  -6.6982  -5.8342   3.6172   3.7919
     6.9259   8.8405   9.0843   9.4128

          k =-0.2621 0.3531 0.0761 (  4544 PWs)   bands (ev):

   -27.5923 -10.8049  -9.6141  -9.2617  -6.3413  -5.8874   4.5667   4.8829
     6.6078   8.3283   8.7188   9.3482

          k =-0.2621 0.3531 0.2284 (  4551 PWs)   bands (ev):

   -27.5858 -10.6790  -9.6901  -9.3056  -6.5501  -5.7409   4.1316   4.2810
     6.9810   8.5316   9.0066   9.2869

          k =-0.2621 0.3531 0.3806 (  4549 PWs)   bands (ev):

   -27.5792 -10.4757  -9.8847  -9.3017  -6.8309  -5.4916   3.6573   3.8390
     7.1603   8.4532   9.2643   9.6213

          k =-0.2621 0.1513 0.0761 (  4543 PWs)   bands (ev):

   -27.6559 -10.5282  -9.6182  -9.0765  -6.9907  -5.5377   4.8584   5.6359
     7.3793   7.6933   8.6046   8.9797

          k =-0.2621 0.1513 0.2284 (  4539 PWs)   bands (ev):

   -27.6481 -10.5510  -9.7242  -9.0667  -6.6713  -5.7441   4.3309   5.1066
     7.6545   7.9059   8.5470   9.1935

          k =-0.2621 0.1513 0.3806 (  4560 PWs)   bands (ev):

   -27.6403 -10.5149  -9.8795  -9.0558  -6.6541  -5.5746   3.9678   4.2259
     7.3959   8.4137   8.7943   9.5575

          k =-0.4369 0.2522 0.0761 (  4549 PWs)   bands (ev):

   -27.5749 -11.0931  -9.2812  -9.1829  -6.5701  -5.8717   4.1155   5.1359
     7.4427   7.7724   8.8747   9.0010

          k =-0.4369 0.2522 0.2284 (  4544 PWs)   bands (ev):

   -27.5687 -10.9617  -9.3921  -9.1702  -6.8425  -5.7066   3.9403   4.3876
     7.2074   8.3201   9.0395   9.2539

          k =-0.4369 0.2522 0.3806 (  4565 PWs)   bands (ev):

   -27.5626 -10.7722  -9.5476  -9.1568  -7.2761  -5.3026   3.2930   4.0332
     6.8930   9.0468   9.3420   9.3500

!    total energy              =    -139.63009775 Ry
     Harris-Foulkes estimate   =    -139.63009766 Ry
     estimated scf accuracy    <       0.00000076 Ry

     The total energy is the sum of the following terms:

     one-electron contribution =     -20.96646531 Ry
     hartree contribution      =      25.50574384 Ry
     xc contribution           =     -26.16646129 Ry
     ewald contribution        =    -118.00291499 Ry

     convergence has been achieved in   8 iterations

     Forces acting on atoms (Ry/au):

     atom    1 type  3   force =    -0.00000000   -0.00000000   -0.00071128
     atom    2 type  2   force =    -0.00000000   -0.00000000    0.08717559
     atom    3 type  2   force =    -0.00000000    0.00000000   -0.08674017
     atom    4 type  1   force =    -0.00000000   -0.00000000   -0.19251617
     atom    5 type  1   force =     0.00000000    0.00000000    0.19279202

     Total force =     0.298923     Total SCF correction =     0.002708


     entering subroutine stress ...

          total   stress  (Ry/bohr**3)                   (kbar)     P=  594.81
   0.00514674   0.00000000   0.00000000        757.11      0.00      0.00
   0.00000000   0.00514674   0.00000000          0.00    757.11      0.00
   0.00000000   0.00000000   0.00183685          0.00      0.00    270.21


     number of scf cycles    =   2
     number of bfgs steps    =   1

     enthalpy old            =    -138.7486741482 Ry
     enthalpy new            =    -138.8702227296 Ry

     CASE: enthalpy_new < enthalpy_old

     new trust radius        =       0.5184921463 bohr
     new conv_thr            =       0.0000010000 Ry

     new unit-cell volume =    184.26327 a.u.^3 (    27.30500 Ang^3 )

CELL_PARAMETERS (alat=  6.37640000)
   0.952318173  -0.000000000  -0.000000000
  -0.476159087   0.824731730  -0.000000000
   0.000000000   0.000000000   0.904934908

ATOMIC_POSITIONS (crystal)
Ca      -0.000000000  -0.000000000  -0.000309357
O        0.333333333   0.666666667   0.315873922
O        0.666666667   0.333333333   0.683271562
H        0.333333333   0.666666667   0.598749061
H        0.666666667   0.333333333   0.400414811



     Writing output data file CaOH2_ambient.save
     NEW-OLD atomic charge density approx. for the potential
     NEW k-points:
        k(    1) = (   0.0875058   0.1515644   0.0920877), wk =   0.0370370
        k(    2) = (   0.0875058   0.1515644   0.2762630), wk =   0.0370370
        k(    3) = (   0.0875058   0.1515644   0.4604383), wk =   0.0370370
        k(    4) = (   0.0875058   0.3536504   0.0920877), wk =   0.0370370
        k(    5) = (   0.0875058   0.3536504   0.2762630), wk =   0.0370370
        k(    6) = (   0.0875058   0.3536504   0.4604383), wk =   0.0370370
        k(    7) = (   0.0875058   0.5557363   0.0920877), wk =   0.0370370
        k(    8) = (   0.0875058   0.5557363   0.2762630), wk =   0.0370370
        k(    9) = (   0.0875058   0.5557363   0.4604383), wk =   0.0370370
        k(   10) = (   0.0875058  -0.4546933   0.0920877), wk =   0.0370370
        k(   11) = (   0.0875058  -0.4546933   0.2762630), wk =   0.0370370
        k(   12) = (   0.0875058  -0.4546933   0.4604383), wk =   0.0370370
        k(   13) = (   0.0875058  -0.2526074   0.0920877), wk =   0.0370370
        k(   14) = (   0.0875058  -0.2526074   0.2762630), wk =   0.0370370
        k(   15) = (   0.0875058  -0.2526074   0.4604383), wk =   0.0370370
        k(   16) = (   0.0875058  -0.0505215   0.0920877), wk =   0.0185185
        k(   17) = (   0.0875058  -0.0505215   0.2762630), wk =   0.0185185
        k(   18) = (   0.0875058  -0.0505215   0.4604383), wk =   0.0185185
        k(   19) = (   0.2625173   0.4546933   0.0920877), wk =   0.0370370
        k(   20) = (   0.2625173   0.4546933   0.2762630), wk =   0.0370370
        k(   21) = (   0.2625173   0.4546933   0.4604383), wk =   0.0370370
        k(   22) = (   0.2625173   0.6567792   0.0920877), wk =   0.0370370
        k(   23) = (   0.2625173   0.6567792   0.2762630), wk =   0.0370370
        k(   24) = (   0.2625173   0.6567792   0.4604383), wk =   0.0370370
        k(   25) = (   0.2625173  -0.3536504   0.0920877), wk =   0.0370370
        k(   26) = (   0.2625173  -0.3536504   0.2762630), wk =   0.0370370
        k(   27) = (   0.2625173  -0.3536504   0.4604383), wk =   0.0370370
        k(   28) = (   0.2625173  -0.1515644   0.0920877), wk =   0.0185185
        k(   29) = (   0.2625173  -0.1515644   0.2762630), wk =   0.0185185
        k(   30) = (   0.2625173  -0.1515644   0.4604383), wk =   0.0185185
        k(   31) = (   0.4375288   0.7578222   0.0920877), wk =   0.0370370
        k(   32) = (   0.4375288   0.7578222   0.2762630), wk =   0.0370370
        k(   33) = (   0.4375288   0.7578222   0.4604383), wk =   0.0370370
        k(   34) = (   0.4375288  -0.2526074   0.0920877), wk =   0.0185185
        k(   35) = (   0.4375288  -0.2526074   0.2762630), wk =   0.0185185
        k(   36) = (   0.4375288  -0.2526074   0.4604383), wk =   0.0185185
        k(   37) = (  -0.0875058  -0.3536504   0.0920877), wk =   0.0370370
        k(   38) = (  -0.0875058  -0.3536504   0.2762630), wk =   0.0370370
        k(   39) = (  -0.0875058  -0.3536504   0.4604383), wk =   0.0370370
        k(   40) = (  -0.0875058  -0.5557363   0.0920877), wk =   0.0370370
        k(   41) = (  -0.0875058  -0.5557363   0.2762630), wk =   0.0370370
        k(   42) = (  -0.0875058  -0.5557363   0.4604383), wk =   0.0370370
        k(   43) = (  -0.0875058   0.4546933   0.0920877), wk =   0.0370370
        k(   44) = (  -0.0875058   0.4546933   0.2762630), wk =   0.0370370
        k(   45) = (  -0.0875058   0.4546933   0.4604383), wk =   0.0370370
        k(   46) = (  -0.0875058   0.2526074   0.0920877), wk =   0.0370370
        k(   47) = (  -0.0875058   0.2526074   0.2762630), wk =   0.0370370
        k(   48) = (  -0.0875058   0.2526074   0.4604383), wk =   0.0370370
        k(   49) = (  -0.0875058   0.0505215   0.0920877), wk =   0.0185185
        k(   50) = (  -0.0875058   0.0505215   0.2762630), wk =   0.0185185
        k(   51) = (  -0.0875058   0.0505215   0.4604383), wk =   0.0185185
        k(   52) = (  -0.2625173  -0.6567792   0.0920877), wk =   0.0370370
        k(   53) = (  -0.2625173  -0.6567792   0.2762630), wk =   0.0370370
        k(   54) = (  -0.2625173  -0.6567792   0.4604383), wk =   0.0370370
        k(   55) = (  -0.2625173   0.3536504   0.0920877), wk =   0.0370370
        k(   56) = (  -0.2625173   0.3536504   0.2762630), wk =   0.0370370
        k(   57) = (  -0.2625173   0.3536504   0.4604383), wk =   0.0370370
        k(   58) = (  -0.2625173   0.1515644   0.0920877), wk =   0.0185185
        k(   59) = (  -0.2625173   0.1515644   0.2762630), wk =   0.0185185
        k(   60) = (  -0.2625173   0.1515644   0.4604383), wk =   0.0185185
        k(   61) = (  -0.4375288   0.2526074   0.0920877), wk =   0.0185185
        k(   62) = (  -0.4375288   0.2526074   0.2762630), wk =   0.0185185
        k(   63) = (  -0.4375288   0.2526074   0.4604383), wk =   0.0185185
     extrapolated charge   19.30785, renormalised to   24.00000

     total cpu time spent up to now is      561.0 secs

     per-process dynamical memory:    21.2 Mb

     Self-consistent Calculation

     iteration #  1     ecut=   100.00 Ry     beta=0.30
     Davidson diagonalization with overlap
     ethr =  1.00E-06,  avg # of iterations =  7.0

     total cpu time spent up to now is      605.0 secs

     total energy              =    -138.50327338 Ry
     Harris-Foulkes estimate   =    -141.84037225 Ry
     estimated scf accuracy    <       2.01826401 Ry

     iteration #  2     ecut=   100.00 Ry     beta=0.30
     Davidson diagonalization with overlap
     ethr =  8.41E-03,  avg # of iterations =  2.0

     total cpu time spent up to now is      624.6 secs

     total energy              =    -139.52877880 Ry
     Harris-Foulkes estimate   =    -139.53377534 Ry
     estimated scf accuracy    <       0.04173616 Ry

     iteration #  3     ecut=   100.00 Ry     beta=0.30
     Davidson diagonalization with overlap
     ethr =  1.74E-04,  avg # of iterations =  2.0

     total cpu time spent up to now is      640.3 secs

     total energy              =    -139.52189640 Ry
     Harris-Foulkes estimate   =    -139.53214739 Ry
     estimated scf accuracy    <       0.02514084 Ry

     iteration #  4     ecut=   100.00 Ry     beta=0.30
     Davidson diagonalization with overlap
     ethr =  1.05E-04,  avg # of iterations =  2.0

     total cpu time spent up to now is      658.8 secs

     total energy              =    -139.52537173 Ry
     Harris-Foulkes estimate   =    -139.52562783 Ry
     estimated scf accuracy    <       0.00122938 Ry

     iteration #  5     ecut=   100.00 Ry     beta=0.30
     Davidson diagonalization with overlap
     ethr =  5.12E-06,  avg # of iterations =  1.7

     total cpu time spent up to now is      672.9 secs

     total energy              =    -139.52519841 Ry
     Harris-Foulkes estimate   =    -139.52544037 Ry
     estimated scf accuracy    <       0.00050836 Ry

     iteration #  6     ecut=   100.00 Ry     beta=0.30
     Davidson diagonalization with overlap
     ethr =  2.12E-06,  avg # of iterations =  2.0

     total cpu time spent up to now is      691.9 secs

     total energy              =    -139.52532653 Ry
     Harris-Foulkes estimate   =    -139.52534541 Ry
     estimated scf accuracy    <       0.00014891 Ry

     iteration #  7     ecut=   100.00 Ry     beta=0.30
     Davidson diagonalization with overlap
     ethr =  6.20E-07,  avg # of iterations =  1.0

     total cpu time spent up to now is      705.4 secs

     total energy              =    -139.52526572 Ry
     Harris-Foulkes estimate   =    -139.52532810 Ry
     estimated scf accuracy    <       0.00010328 Ry

     iteration #  8     ecut=   100.00 Ry     beta=0.30
     Davidson diagonalization with overlap
     ethr =  4.30E-07,  avg # of iterations =  2.0

     total cpu time spent up to now is      723.5 secs

     total energy              =    -139.52529809 Ry
     Harris-Foulkes estimate   =    -139.52529927 Ry
     estimated scf accuracy    <       0.00000855 Ry

     iteration #  9     ecut=   100.00 Ry     beta=0.30
     Davidson diagonalization with overlap
     ethr =  3.56E-08,  avg # of iterations =  1.0

     total cpu time spent up to now is      737.2 secs

     total energy              =    -139.52529568 Ry
     Harris-Foulkes estimate   =    -139.52529830 Ry
     estimated scf accuracy    <       0.00000544 Ry

     iteration # 10     ecut=   100.00 Ry     beta=0.30
     Davidson diagonalization with overlap
     ethr =  2.27E-08,  avg # of iterations =  2.0

     total cpu time spent up to now is      753.7 secs

     End of self-consistent calculation

          k = 0.0875 0.1516 0.0921 (  4531 PWs)   bands (ev):

   -24.7658  -9.0464  -6.6261  -6.0472  -5.6132  -3.7658   6.3891   7.5084
     8.7457   9.2305  12.3223  13.0141

          k = 0.0875 0.1516 0.2763 (  4541 PWs)   bands (ev):

   -24.6991  -9.4238  -6.6097  -5.9923  -5.1927  -3.8045   4.9995   7.4208
     8.9613   9.7790  11.7427  12.8354

          k = 0.0875 0.1516 0.4604 (  4548 PWs)   bands (ev):

   -24.6309  -9.7967  -6.4568  -5.9314  -4.8488  -3.8989   4.0912   6.9850
     9.4420  10.0143  11.4952  12.2246

          k = 0.0875 0.3537 0.0921 (  4545 PWs)   bands (ev):

   -24.6581  -9.3498  -6.8509  -6.1857  -5.1991  -4.1487   6.5411   7.0665
     8.8079  10.0471  11.9949  13.2018

          k = 0.0875 0.3537 0.2763 (  4549 PWs)   bands (ev):

   -24.6002  -9.1044  -7.3633  -6.1832  -5.1688  -3.9739   5.3304   6.5873
     8.7174  10.2728  12.4900  13.2394

          k = 0.0875 0.3537 0.4604 (  4546 PWs)   bands (ev):

   -24.5413  -9.0084  -7.4631  -6.1025  -5.3726  -3.9930   4.6624   6.1090
     8.7977  10.3192  12.7334  12.9171

          k = 0.0875 0.5557 0.0921 (  4557 PWs)   bands (ev):

   -24.5771  -9.5758  -6.9604  -6.1053  -5.4205  -4.0870   6.3718   7.1925
     8.7249  10.0793  12.4635  13.2229

          k = 0.0875 0.5557 0.2763 (  4553 PWs)   bands (ev):

   -24.5261  -9.0699  -7.2302  -6.3327  -5.5853  -4.2586   6.0109   6.1183
     8.7334  10.3653  12.6709  13.2608

          k = 0.0875 0.5557 0.4604 (  4556 PWs)   bands (ev):

   -24.4742  -8.2223  -7.6797  -6.5184  -6.0648  -4.3234   5.1498   5.9680
     8.5473  10.8940  12.5763  13.1823

          k = 0.0875-0.4547 0.0921 (  4549 PWs)   bands (ev):

   -24.6070  -9.5448  -6.7216  -6.1238  -5.2845  -4.4068   6.4907   7.4856
     8.7940  10.1621  12.0178  12.8761

          k = 0.0875-0.4547 0.2763 (  4548 PWs)   bands (ev):

   -24.5533  -9.2315  -6.6577  -6.4893  -5.3769  -4.6182   5.7997   6.7198
     9.0437  10.4331  12.1255  12.6543

          k = 0.0875-0.4547 0.4604 (  4557 PWs)   bands (ev):

   -24.4989  -8.7377  -7.2445  -6.3450  -5.8665  -4.3661   5.0900   6.0616
     8.8046  10.6698  12.5031  12.8080

          k = 0.0875-0.2526 0.0921 (  4535 PWs)   bands (ev):

   -24.7162  -9.2268  -6.5878  -6.1439  -5.3457  -4.1543   6.5172   7.4503
     8.9116   9.6700  11.9662  12.8201

          k = 0.0875-0.2526 0.2763 (  4532 PWs)   bands (ev):

   -24.6535  -9.3394  -6.8091  -6.1019  -4.9861  -4.2341   5.2534   7.1549
     9.1816   9.9375  11.8081  12.7229

          k = 0.0875-0.2526 0.4604 (  4555 PWs)   bands (ev):

   -24.5896  -9.5042  -6.8658  -6.0145  -4.9933  -4.0506   4.3886   6.5621
     9.4207   9.8669  11.9364  12.6430

          k = 0.0875-0.0505 0.0921 (  4547 PWs)   bands (ev):

   -24.7941  -8.9400  -6.5951  -5.9932  -5.8191  -3.5306   6.2957   7.5840
     8.6328   8.9358  12.6016  13.1101

          k = 0.0875-0.0505 0.2763 (  4538 PWs)   bands (ev):

   -24.7251  -9.4905  -6.3244  -5.9402  -5.4155  -3.6102   4.8927   7.6444
     8.8994   9.5402  11.8670  12.6784

          k = 0.0875-0.0505 0.4604 (  4540 PWs)   bands (ev):

   -24.6545  -9.9538  -6.1199  -5.8889  -4.8303  -3.8832   3.9656   7.3179
     9.5129  10.1618  11.2115  11.7426

          k = 0.2625 0.4547 0.0921 (  4559 PWs)   bands (ev):

   -24.5776  -9.3084  -7.7384  -6.0724  -4.5812  -4.3833   6.5133   7.0337
     8.0617  11.0771  11.7875  13.6027

          k = 0.2625 0.4547 0.2763 (  4556 PWs)   bands (ev):

   -24.5264  -8.9074  -7.5301  -6.4924  -5.0698  -4.4999   5.8778   6.3882
     8.6101  10.8568  12.1174  13.2496

          k = 0.2625 0.4547 0.4604 (  4549 PWs)   bands (ev):

   -24.4744  -8.2898  -7.5844  -6.6155  -5.6308  -4.8015   5.4906   5.8273
     9.0481  10.6339  12.4165  12.8209

          k = 0.2625 0.6568 0.0921 (  4559 PWs)   bands (ev):

   -24.5557  -9.1616  -8.1485  -6.0250  -4.5085  -4.2977   6.5462   6.9424
     7.7722  11.3142  11.8550  13.7901

          k = 0.2625 0.6568 0.2763 (  4568 PWs)   bands (ev):

   -24.5064  -8.7402  -7.8160  -6.4432  -5.0401  -4.6324   6.0505   6.3302
     8.4215  11.1917  11.9235  13.3360

          k = 0.2625 0.6568 0.4604 (  4556 PWs)   bands (ev):

   -24.4563  -8.0749  -7.4804  -6.8108  -5.7521  -5.0764   5.6455   5.8886
     9.0418  11.0605  11.9983  12.7680

          k = 0.2625-0.3537 0.0921 (  4544 PWs)   bands (ev):

   -24.6151  -9.3825  -7.2290  -6.1496  -4.9063  -4.2749   6.5182   7.0559
     8.5089  10.5419  11.8720  13.3669

          k = 0.2625-0.3537 0.2763 (  4551 PWs)   bands (ev):

   -24.5608  -9.0259  -7.3837  -6.3993  -5.1289  -4.2365   5.6150   6.4501
     8.7555  10.4556  12.4380  13.1654

          k = 0.2625-0.3537 0.4604 (  4549 PWs)   bands (ev):

   -24.5056  -8.6323  -7.6164  -6.3320  -5.5040  -4.3679   5.0787   5.9247
     8.9458  10.3601  12.7842  12.8446

          k = 0.2625-0.1516 0.0921 (  4543 PWs)   bands (ev):

   -24.6950  -9.2573  -6.7625  -6.1308  -5.3308  -4.0459   6.5190   7.1433
     8.8160   9.8388  11.9963  13.1909

          k = 0.2625-0.1516 0.2763 (  4539 PWs)   bands (ev):

   -24.6341  -9.1868  -7.2570  -6.0638  -5.1502  -3.8342   5.1415   6.7910
     8.6663  10.2231  12.2739  13.2881

          k = 0.2625-0.1516 0.4604 (  4560 PWs)   bands (ev):

   -24.5720  -9.3062  -7.2085  -6.0000  -5.2093  -3.8253   4.3966   6.3314
     8.8080  10.3001  12.5498  12.7456

          k = 0.4375 0.7578 0.0921 (  4568 PWs)   bands (ev):

   -24.5635  -9.4168  -7.6091  -6.0417  -4.9246  -4.1700   6.4440   7.0971
     8.1418  10.7665  12.1436  13.5566

          k = 0.4375 0.7578 0.2763 (  4565 PWs)   bands (ev):

   -24.5136  -8.9521  -7.4361  -6.4460  -5.3250  -4.4520   6.0258   6.2739
     8.6078  10.7385  12.2619  13.2977

          k = 0.4375 0.7578 0.4604 (  4544 PWs)   bands (ev):

   -24.4628  -8.2048  -7.3813  -6.8037  -5.9736  -4.6824   5.3975   5.9684
     8.8189  10.9784  12.2633  12.9453

          k = 0.4375-0.2526 0.0921 (  4549 PWs)   bands (ev):

   -24.5931  -9.5863  -6.5661  -6.2656  -5.6078  -4.0544   6.3815   7.1584
     9.1268   9.6436  12.7024  12.9590

          k = 0.4375-0.2526 0.2763 (  4544 PWs)   bands (ev):

   -24.5407  -9.0702  -7.3260  -6.1878  -5.6167  -4.1116   5.8247   6.1399
     8.7102  10.2617  12.8932  13.2771

          k = 0.4375-0.2526 0.4604 (  4565 PWs)   bands (ev):

   -24.4874  -8.1622  -8.0166  -6.1654  -6.1103  -4.1361   5.0031   5.9349
     8.4514  10.7888  12.7623  13.2764

          k =-0.0875-0.3537 0.0921 (  4545 PWs)   bands (ev):

   -24.6580  -9.4113  -6.5883  -6.1918  -5.1641  -4.4663   6.5576   7.4655
     8.9324  10.0594  11.7820  12.7641

          k =-0.0875-0.3537 0.2763 (  4549 PWs)   bands (ev):

   -24.6002  -9.2767  -6.8184  -6.2606  -4.9284  -4.6915   5.5636   6.9224
     9.2209  10.1858  12.0469  12.4784

          k =-0.0875-0.3537 0.4604 (  4546 PWs)   bands (ev):

   -24.5412  -9.1204  -7.1744  -6.1278  -5.3648  -4.2465   4.7888   6.2197
     9.1028  10.2013  12.4052  12.7102

          k =-0.0875-0.5557 0.0921 (  4557 PWs)   bands (ev):

   -24.5771  -9.6005  -6.8767  -6.0661  -5.4401  -4.2058   6.3975   7.3829
     8.6971  10.1262  12.3308  13.0869

          k =-0.0875-0.5557 0.2763 (  4553 PWs)   bands (ev):

   -24.5260  -9.1656  -6.8395  -6.4495  -5.6441  -4.4532   5.9292   6.4616
     8.8518  10.4327  12.3749  13.0067

          k =-0.0875-0.5557 0.4604 (  4556 PWs)   bands (ev):

   -24.4742  -8.4555  -7.0020  -6.9200  -6.0759  -4.3909   5.1688   6.0505
     8.6130  10.9818  12.3644  13.0783

          k =-0.0875 0.4547 0.0921 (  4549 PWs)   bands (ev):

   -24.6070  -9.4851  -6.9426  -6.1718  -5.2910  -4.0981   6.4602   7.0400
     8.7879  10.0653  12.3275  13.2316

          k =-0.0875 0.4547 0.2763 (  4548 PWs)   bands (ev):

   -24.5534  -9.0170  -7.4543  -6.2667  -5.3752  -4.0789   5.6563   6.2615
     8.6925  10.3256  12.7485  13.3279

          k =-0.0875 0.4547 0.4604 (  4557 PWs)   bands (ev):

   -24.4989  -8.4133  -7.8785  -6.2171  -5.7887  -4.1732   5.0045   5.9067
     8.6115  10.6129  12.8218  13.1144

          k =-0.0875 0.2526 0.0921 (  4535 PWs)   bands (ev):

   -24.7162  -9.1939  -6.7364  -6.1305  -5.3217  -4.0340   6.4859   7.2952
     8.7760   9.7771  11.9253  13.1350

          k =-0.0875 0.2526 0.2763 (  4532 PWs)   bands (ev):

   -24.6535  -9.2762  -7.0276  -6.0824  -5.0726  -3.9199   5.1242   7.0122
     8.8067  10.1326  12.0137  13.0695

          k =-0.0875 0.2526 0.4604 (  4555 PWs)   bands (ev):

   -24.5896  -9.4776  -6.9603  -6.0082  -5.0458  -3.8861   4.3186   6.5141
     9.0874  10.0977  12.2197  12.6198

          k =-0.0875 0.0505 0.0921 (  4547 PWs)   bands (ev):

   -24.7941  -8.9466  -6.5586  -5.9955  -5.8392  -3.5450   6.3071   7.6027
     8.7697   8.7945  12.7684  12.9034

          k =-0.0875 0.0505 0.2763 (  4538 PWs)   bands (ev):

   -24.7251  -9.4975  -6.2775  -5.9449  -5.4270  -3.6499   4.9155   7.6619
     9.0903   9.3737  11.8483  12.6174

          k =-0.0875 0.0505 0.4604 (  4540 PWs)   bands (ev):

   -24.6545  -9.9561  -6.1052  -5.8913  -4.8110  -3.9217   3.9776   7.3233
     9.7002  10.0282  11.0504  11.8296

          k =-0.2625-0.6568 0.0921 (  4559 PWs)   bands (ev):

   -24.5557  -9.1517  -8.1631  -6.0267  -4.5616  -4.2317   6.5503   6.8897
     7.7985  11.2664  11.9070  13.8139

          k =-0.2625-0.6568 0.2763 (  4568 PWs)   bands (ev):

   -24.5064  -8.7011  -7.8797  -6.4357  -5.0683  -4.5757   6.1251   6.2098
     8.4178  11.1194  12.0274  13.3694

          k =-0.2625-0.6568 0.4604 (  4556 PWs)   bands (ev):

   -24.4563  -7.9680  -7.6560  -6.7525  -5.7473  -5.0658   5.6823   5.8368
     9.0243  11.0309  12.0763  12.7609

          k =-0.2625 0.3537 0.0921 (  4544 PWs)   bands (ev):

   -24.6151  -9.4133  -7.1446  -6.1405  -4.7510  -4.5336   6.5242   7.2671
     8.4780  10.6734  11.6716  13.2091

          k =-0.2625 0.3537 0.2763 (  4551 PWs)   bands (ev):

   -24.5608  -9.1272  -7.0639  -6.4970  -5.0242  -4.5420   5.6887   6.6402
     8.8994  10.5322  12.1365  12.8813

          k =-0.2625 0.3537 0.4604 (  4549 PWs)   bands (ev):

   -24.5055  -8.7397  -7.3846  -6.3865  -5.5117  -4.4684   5.1116   5.9953
     9.0802  10.3184  12.6188  12.7576

          k =-0.2625 0.1516 0.0921 (  4543 PWs)   bands (ev):

   -24.6950  -9.3271  -6.4265  -6.1352  -5.4007  -4.3333   6.5620   7.5302
     9.1737   9.5758  12.0487  12.4914

          k =-0.2625 0.1516 0.2763 (  4539 PWs)   bands (ev):

   -24.6340  -9.3453  -6.7586  -6.0728  -4.8990  -4.6217   5.4255   7.1280
     9.4806   9.8387  11.7962  12.4807

          k =-0.2625 0.1516 0.4604 (  4560 PWs)   bands (ev):

   -24.5719  -9.3825  -6.9749  -6.0046  -5.1465  -4.1518   4.5524   6.4426
     9.2268  10.1115  11.9913  12.7036

          k =-0.4375 0.2526 0.0921 (  4549 PWs)   bands (ev):

   -24.5930  -9.6358  -6.2676  -6.0932  -5.8807  -4.2885   6.4280   7.5425
     9.3188   9.5137  12.4889  12.6058

          k =-0.4375 0.2526 0.2763 (  4544 PWs)   bands (ev):

   -24.5406  -9.2578  -6.5870  -6.1921  -5.9077  -4.5333   5.8790   6.6424
     9.0293  10.3315  12.3676  12.6355

          k =-0.4375 0.2526 0.4604 (  4565 PWs)   bands (ev):

   -24.4874  -8.6384  -7.1317  -6.4950  -6.1125  -4.2941   5.0793   6.0821
     8.5862  10.9280  12.4303  12.9802

!    total energy              =    -139.52529668 Ry
     Harris-Foulkes estimate   =    -139.52529669 Ry
     estimated scf accuracy    <       0.00000002 Ry

     The total energy is the sum of the following terms:

     one-electron contribution =     -10.88204031 Ry
     hartree contribution      =      23.04952564 Ry
     xc contribution           =     -27.06749438 Ry
     ewald contribution        =    -124.62528763 Ry

     convergence has been achieved in  10 iterations

     Forces acting on atoms (Ry/au):

     atom    1 type  3   force =    -0.00000000   -0.00000000   -0.00013702
     atom    2 type  2   force =    -0.00000000    0.00000000   -0.27468612
     atom    3 type  2   force =     0.00000000   -0.00000000    0.27496094
     atom    4 type  1   force =     0.00000000    0.00000000    0.17556415
     atom    5 type  1   force =    -0.00000000    0.00000000   -0.17570195

     Total force =     0.461248     Total SCF correction =     0.000025


     entering subroutine stress ...

          total   stress  (Ry/bohr**3)                   (kbar)     P= 1626.84
   0.01081960   0.00000000   0.00000000       1591.62      0.00      0.00
   0.00000000   0.01081960   0.00000000          0.00   1591.62      0.00
   0.00000000   0.00000000   0.01153799          0.00      0.00   1697.30


     number of scf cycles    =   3
     number of bfgs steps    =   2

     enthalpy old            =    -138.8702227296 Ry
     enthalpy new            =    -138.8989984504 Ry

     CASE: enthalpy_new < enthalpy_old

     new trust radius        =       0.3767956655 bohr
     new conv_thr            =       0.0000010000 Ry

     new unit-cell volume =    225.32287 a.u.^3 (    33.38940 Ang^3 )

CELL_PARAMETERS (alat=  6.37640000)
   0.986832847   0.000000000  -0.000000000
  -0.493416424   0.854622315  -0.000000000
   0.000000000   0.000000000   1.030530345

ATOMIC_POSITIONS (crystal)
Ca      -0.000000000  -0.000000000  -0.000241287
O        0.333333333   0.666666667   0.299486454
O        0.666666667   0.333333333   0.699629104
H        0.333333333   0.666666667   0.622797184
H        0.666666667   0.333333333   0.376328546



     Writing output data file CaOH2_ambient.save
     NEW-OLD atomic charge density approx. for the potential
     NEW k-points:
        k(    1) = (   0.0844452   0.1462634   0.0808645), wk =   0.0370370
        k(    2) = (   0.0844452   0.1462634   0.2425935), wk =   0.0370370
        k(    3) = (   0.0844452   0.1462634   0.4043226), wk =   0.0370370
        k(    4) = (   0.0844452   0.3412814   0.0808645), wk =   0.0370370
        k(    5) = (   0.0844452   0.3412814   0.2425935), wk =   0.0370370
        k(    6) = (   0.0844452   0.3412814   0.4043226), wk =   0.0370370
        k(    7) = (   0.0844452   0.5362993   0.0808645), wk =   0.0370370
        k(    8) = (   0.0844452   0.5362993   0.2425935), wk =   0.0370370
        k(    9) = (   0.0844452   0.5362993   0.4043226), wk =   0.0370370
        k(   10) = (   0.0844452  -0.4387903   0.0808645), wk =   0.0370370
        k(   11) = (   0.0844452  -0.4387903   0.2425935), wk =   0.0370370
        k(   12) = (   0.0844452  -0.4387903   0.4043226), wk =   0.0370370
        k(   13) = (   0.0844452  -0.2437724   0.0808645), wk =   0.0370370
        k(   14) = (   0.0844452  -0.2437724   0.2425935), wk =   0.0370370
        k(   15) = (   0.0844452  -0.2437724   0.4043226), wk =   0.0370370
        k(   16) = (   0.0844452  -0.0487545   0.0808645), wk =   0.0185185
        k(   17) = (   0.0844452  -0.0487545   0.2425935), wk =   0.0185185
        k(   18) = (   0.0844452  -0.0487545   0.4043226), wk =   0.0185185
        k(   19) = (   0.2533357   0.4387903   0.0808645), wk =   0.0370370
        k(   20) = (   0.2533357   0.4387903   0.2425935), wk =   0.0370370
        k(   21) = (   0.2533357   0.4387903   0.4043226), wk =   0.0370370
        k(   22) = (   0.2533357   0.6338082   0.0808645), wk =   0.0370370
        k(   23) = (   0.2533357   0.6338082   0.2425935), wk =   0.0370370
        k(   24) = (   0.2533357   0.6338082   0.4043226), wk =   0.0370370
        k(   25) = (   0.2533357  -0.3412814   0.0808645), wk =   0.0370370
        k(   26) = (   0.2533357  -0.3412814   0.2425935), wk =   0.0370370
        k(   27) = (   0.2533357  -0.3412814   0.4043226), wk =   0.0370370
        k(   28) = (   0.2533357  -0.1462634   0.0808645), wk =   0.0185185
        k(   29) = (   0.2533357  -0.1462634   0.2425935), wk =   0.0185185
        k(   30) = (   0.2533357  -0.1462634   0.4043226), wk =   0.0185185
        k(   31) = (   0.4222262   0.7313172   0.0808645), wk =   0.0370370
        k(   32) = (   0.4222262   0.7313172   0.2425935), wk =   0.0370370
        k(   33) = (   0.4222262   0.7313172   0.4043226), wk =   0.0370370
        k(   34) = (   0.4222262  -0.2437724   0.0808645), wk =   0.0185185
        k(   35) = (   0.4222262  -0.2437724   0.2425935), wk =   0.0185185
        k(   36) = (   0.4222262  -0.2437724   0.4043226), wk =   0.0185185
        k(   37) = (  -0.0844452  -0.3412814   0.0808645), wk =   0.0370370
        k(   38) = (  -0.0844452  -0.3412814   0.2425935), wk =   0.0370370
        k(   39) = (  -0.0844452  -0.3412814   0.4043226), wk =   0.0370370
        k(   40) = (  -0.0844452  -0.5362993   0.0808645), wk =   0.0370370
        k(   41) = (  -0.0844452  -0.5362993   0.2425935), wk =   0.0370370
        k(   42) = (  -0.0844452  -0.5362993   0.4043226), wk =   0.0370370
        k(   43) = (  -0.0844452   0.4387903   0.0808645), wk =   0.0370370
        k(   44) = (  -0.0844452   0.4387903   0.2425935), wk =   0.0370370
        k(   45) = (  -0.0844452   0.4387903   0.4043226), wk =   0.0370370
        k(   46) = (  -0.0844452   0.2437724   0.0808645), wk =   0.0370370
        k(   47) = (  -0.0844452   0.2437724   0.2425935), wk =   0.0370370
        k(   48) = (  -0.0844452   0.2437724   0.4043226), wk =   0.0370370
        k(   49) = (  -0.0844452   0.0487545   0.0808645), wk =   0.0185185
        k(   50) = (  -0.0844452   0.0487545   0.2425935), wk =   0.0185185
        k(   51) = (  -0.0844452   0.0487545   0.4043226), wk =   0.0185185
        k(   52) = (  -0.2533357  -0.6338082   0.0808645), wk =   0.0370370
        k(   53) = (  -0.2533357  -0.6338082   0.2425935), wk =   0.0370370
        k(   54) = (  -0.2533357  -0.6338082   0.4043226), wk =   0.0370370
        k(   55) = (  -0.2533357   0.3412814   0.0808645), wk =   0.0370370
        k(   56) = (  -0.2533357   0.3412814   0.2425935), wk =   0.0370370
        k(   57) = (  -0.2533357   0.3412814   0.4043226), wk =   0.0370370
        k(   58) = (  -0.2533357   0.1462634   0.0808645), wk =   0.0185185
        k(   59) = (  -0.2533357   0.1462634   0.2425935), wk =   0.0185185
        k(   60) = (  -0.2533357   0.1462634   0.4043226), wk =   0.0185185
        k(   61) = (  -0.4222262   0.2437724   0.0808645), wk =   0.0185185
        k(   62) = (  -0.4222262   0.2437724   0.2425935), wk =   0.0185185
        k(   63) = (  -0.4222262   0.2437724   0.4043226), wk =   0.0185185
     extrapolated charge   28.00896, renormalised to   24.00000

     total cpu time spent up to now is      850.7 secs

     per-process dynamical memory:    21.2 Mb

     Self-consistent Calculation

     iteration #  1     ecut=   100.00 Ry     beta=0.30
     Davidson diagonalization with overlap
     c_bands:  1 eigenvalues not converged
     ethr =  1.00E-06,  avg # of iterations =  9.0

     total cpu time spent up to now is      895.8 secs

     total energy              =    -138.56544181 Ry
     Harris-Foulkes estimate   =    -137.19150017 Ry
     estimated scf accuracy    <       1.71654099 Ry

     iteration #  2     ecut=   100.00 Ry     beta=0.30
     Davidson diagonalization with overlap
     ethr =  7.15E-03,  avg # of iterations =  3.1

     total cpu time spent up to now is      919.6 secs

     total energy              =    -139.79679580 Ry
     Harris-Foulkes estimate   =    -139.84652704 Ry
     estimated scf accuracy    <       0.28806440 Ry

     iteration #  3     ecut=   100.00 Ry     beta=0.30
     Davidson diagonalization with overlap
     ethr =  1.20E-03,  avg # of iterations =  1.1

     total cpu time spent up to now is      933.1 secs

     total energy              =    -139.70641055 Ry
     Harris-Foulkes estimate   =    -139.81563564 Ry
     estimated scf accuracy    <       0.17066464 Ry

     iteration #  4     ecut=   100.00 Ry     beta=0.30
     Davidson diagonalization with overlap
     ethr =  7.11E-04,  avg # of iterations =  2.6

     total cpu time spent up to now is      950.9 secs

     total energy              =    -139.77489340 Ry
     Harris-Foulkes estimate   =    -139.77966006 Ry
     estimated scf accuracy    <       0.03379129 Ry

     iteration #  5     ecut=   100.00 Ry     beta=0.30
     Davidson diagonalization with overlap
     ethr =  1.41E-04,  avg # of iterations =  1.0

     total cpu time spent up to now is      964.4 secs

     total energy              =    -139.76546724 Ry
     Harris-Foulkes estimate   =    -139.77540141 Ry
     estimated scf accuracy    <       0.02125000 Ry

     iteration #  6     ecut=   100.00 Ry     beta=0.30
     Davidson diagonalization with overlap
     ethr =  8.85E-05,  avg # of iterations =  2.0

     total cpu time spent up to now is      981.9 secs

     total energy              =    -139.76969728 Ry
     Harris-Foulkes estimate   =    -139.76972477 Ry
     estimated scf accuracy    <       0.00017792 Ry

     iteration #  7     ecut=   100.00 Ry     beta=0.30
     Davidson diagonalization with overlap
     ethr =  7.41E-07,  avg # of iterations =  2.2

     total cpu time spent up to now is      999.0 secs

     total energy              =    -139.78147770 Ry
     Harris-Foulkes estimate   =    -139.78146847 Ry
     estimated scf accuracy    <       0.00021828 Ry

     iteration #  8     ecut=   100.00 Ry     beta=0.30
     Davidson diagonalization with overlap
     ethr =  7.41E-07,  avg # of iterations =  2.0

     total cpu time spent up to now is     1013.3 secs

     total energy              =    -139.78142187 Ry
     Harris-Foulkes estimate   =    -139.78148798 Ry
     estimated scf accuracy    <       0.00020248 Ry

     iteration #  9     ecut=   100.00 Ry     beta=0.30
     Davidson diagonalization with overlap
     ethr =  7.41E-07,  avg # of iterations =  2.0

     total cpu time spent up to now is     1030.5 secs

     total energy              =    -139.78143314 Ry
     Harris-Foulkes estimate   =    -139.78143971 Ry
     estimated scf accuracy    <       0.00001990 Ry

     iteration # 10     ecut=   100.00 Ry     beta=0.30
     Davidson diagonalization with overlap
     ethr =  8.29E-08,  avg # of iterations =  2.0

     total cpu time spent up to now is     1047.0 secs

     total energy              =    -139.78143594 Ry
     Harris-Foulkes estimate   =    -139.78143564 Ry
     estimated scf accuracy    <       0.00000239 Ry

     iteration # 11     ecut=   100.00 Ry     beta=0.30
     Davidson diagonalization with overlap
     ethr =  9.96E-09,  avg # of iterations =  1.5

     total cpu time spent up to now is     1060.5 secs

     End of self-consistent calculation

          k = 0.0844 0.1463 0.0809 (  4531 PWs)   bands (ev):

   -27.9303 -10.2571  -9.7583  -9.2757  -8.2794  -5.6177   4.3245   5.4477
     6.7397   7.1806   8.9878   9.5412

          k = 0.0844 0.1463 0.2426 (  4541 PWs)   bands (ev):

   -27.9152 -10.6642  -9.6314  -9.2604  -7.8110  -5.7724   3.5566   5.0706
     6.8958   7.5792   8.7279   9.4503

          k = 0.0844 0.1463 0.4043 (  4548 PWs)   bands (ev):

   -27.9000 -10.9546  -9.5579  -9.2446  -7.3015  -6.0363   3.0905   4.5107
     7.2930   7.8131   8.5276   9.0901

          k = 0.0844 0.3413 0.0809 (  4545 PWs)   bands (ev):

   -27.8707 -10.7915  -9.7054  -9.3920  -7.5316  -6.0644   4.3482   4.6870
     6.6694   7.7984   8.6815   9.6072

          k = 0.0844 0.3413 0.2426 (  4549 PWs)   bands (ev):

   -27.8576 -10.5865 -10.0080  -9.3773  -7.5949  -5.8641   3.3523   4.2535
     6.6552   8.0744   9.2559   9.6025

          k = 0.0844 0.3413 0.4043 (  4546 PWs)   bands (ev):

   -27.8445 -10.4159 -10.2250  -9.3575  -7.5861  -5.8554   2.8867   3.7776
     6.7811   8.1403   9.3468   9.5694

[...]

     Largest allocated arrays     est. size (Mb)     dimensions
        Kohn-Sham Wavefunctions         0.77 Mb     (   4204,   12)
        NL pseudopotentials             0.58 Mb     (   4204,    9)
        Each V/rho on FFT grid          0.89 Mb     (  58320)
        Each G-vector array             0.18 Mb     (  23977)
        G-vector shells                 0.01 Mb     (   1159)
     Largest temporary arrays     est. size (Mb)     dimensions
        Auxiliary wavefunctions         3.08 Mb     (   4204,   48)
        Each subspace H/S matrix        0.04 Mb     (  48,  48)
        Each <psi_i|beta_j> matrix      0.00 Mb     (      9,   12)
        Arrays for rho mixing          14.24 Mb     (  58320,  16)

     Initial potential from superposition of free atoms

     starting charge   21.99998, renormalised to   24.00000
     Starting wfc are   14 randomized atomic wfcs

     Writing output data file CaOH2_ambient.save

     total cpu time spent up to now is     5825.0 secs

     per-process dynamical memory:    18.9 Mb

     Self-consistent Calculation

     iteration #  1     ecut=   100.00 Ry     beta=0.30
     Davidson diagonalization with overlap
     ethr =  1.00E-06,  avg # of iterations =  6.0

     total cpu time spent up to now is     5856.5 secs

     total energy              =    -140.06588156 Ry
     Harris-Foulkes estimate   =    -140.13832763 Ry
     estimated scf accuracy    <       0.39764736 Ry

     iteration #  2     ecut=   100.00 Ry     beta=0.30
     Davidson diagonalization with overlap
     ethr =  1.66E-03,  avg # of iterations =  1.0

     total cpu time spent up to now is     5866.0 secs

     total energy              =    -139.91382423 Ry
     Harris-Foulkes estimate   =    -140.06914648 Ry
     estimated scf accuracy    <       0.24821322 Ry

     iteration #  3     ecut=   100.00 Ry     beta=0.30
     Davidson diagonalization with overlap
     ethr =  1.03E-03,  avg # of iterations =  2.0

     total cpu time spent up to now is     5878.1 secs

     total energy              =    -139.95374619 Ry
     Harris-Foulkes estimate   =    -139.95614504 Ry
     estimated scf accuracy    <       0.01095845 Ry

     iteration #  4     ecut=   100.00 Ry     beta=0.30
     Davidson diagonalization with overlap
     ethr =  4.57E-05,  avg # of iterations =  1.9

     total cpu time spent up to now is     5888.4 secs

     total energy              =    -139.95356531 Ry
     Harris-Foulkes estimate   =    -139.95448937 Ry
     estimated scf accuracy    <       0.00218849 Ry

     iteration #  5     ecut=   100.00 Ry     beta=0.30
     Davidson diagonalization with overlap
     ethr =  9.12E-06,  avg # of iterations =  2.0

     total cpu time spent up to now is     5899.5 secs

     total energy              =    -139.95384107 Ry
     Harris-Foulkes estimate   =    -139.95385860 Ry
     estimated scf accuracy    <       0.00019088 Ry

     iteration #  6     ecut=   100.00 Ry     beta=0.30
     Davidson diagonalization with overlap
     ethr =  7.95E-07,  avg # of iterations =  1.8

     total cpu time spent up to now is     5909.2 secs

     total energy              =    -139.95385426 Ry
     Harris-Foulkes estimate   =    -139.95385346 Ry
     estimated scf accuracy    <       0.00008541 Ry

     iteration #  7     ecut=   100.00 Ry     beta=0.30
     Davidson diagonalization with overlap
     ethr =  3.56E-07,  avg # of iterations =  3.0

     total cpu time spent up to now is     5922.1 secs

     total energy              =    -139.95387124 Ry
     Harris-Foulkes estimate   =    -139.95388260 Ry
     estimated scf accuracy    <       0.00004101 Ry

     iteration #  8     ecut=   100.00 Ry     beta=0.30
     Davidson diagonalization with overlap
     ethr =  1.71E-07,  avg # of iterations =  1.1

     total cpu time spent up to now is     5931.5 secs

     total energy              =    -139.95386769 Ry
     Harris-Foulkes estimate   =    -139.95387342 Ry
     estimated scf accuracy    <       0.00001157 Ry

     iteration #  9     ecut=   100.00 Ry     beta=0.30
     Davidson diagonalization with overlap
     ethr =  4.82E-08,  avg # of iterations =  2.0

     total cpu time spent up to now is     5943.6 secs

     total energy              =    -139.95387070 Ry
     Harris-Foulkes estimate   =    -139.95387075 Ry
     estimated scf accuracy    <       0.00000029 Ry

     iteration # 10     ecut=   100.00 Ry     beta=0.30
     Davidson diagonalization with overlap
     ethr =  1.21E-09,  avg # of iterations =  2.0

     total cpu time spent up to now is     5954.8 secs

     total energy              =    -139.95387074 Ry
     Harris-Foulkes estimate   =    -139.95387074 Ry
     estimated scf accuracy    <       0.00000006 Ry

     iteration # 11     ecut=   100.00 Ry     beta=0.30
     Davidson diagonalization with overlap
     ethr =  2.47E-10,  avg # of iterations =  2.0

     total cpu time spent up to now is     5967.7 secs

     total energy              =    -139.95387074 Ry
     Harris-Foulkes estimate   =    -139.95387075 Ry
     estimated scf accuracy    <       0.00000001 Ry

     iteration # 12     ecut=   100.00 Ry     beta=0.30
     Davidson diagonalization with overlap
     ethr =  5.64E-11,  avg # of iterations =  2.0

     total cpu time spent up to now is     5978.7 secs

     End of self-consistent calculation

          k = 0.0854 0.1478 0.0718 (  4190 PWs)   bands (ev):

   -29.2155 -11.7056 -11.2880 -10.5242  -9.9425  -7.9958   1.8116   3.6995
     5.6725   5.8645   7.0741   7.5982

          k = 0.0854 0.1478 0.2155 (  4174 PWs)   bands (ev):

   -29.2112 -12.0783 -11.0395 -10.5197  -9.6298  -8.1858   1.8424   3.2243
     5.7473   6.2578   6.8997   7.4946

          k = 0.0854 0.1478 0.3591 (  4172 PWs)   bands (ev):

   -29.2070 -12.3018 -10.9369 -10.5151  -9.1883  -8.5087   1.9865   2.6846
     6.0387   6.4625   6.7868   7.2387

          k = 0.0854 0.3450 0.0718 (  4194 PWs)   bands (ev):

   -29.1547 -12.0867 -11.2250 -10.6438  -9.4455  -8.3564   2.1979   3.0413
     5.5557   5.8762   6.6324   7.5422

          k = 0.0854 0.3450 0.2155 (  4191 PWs)   bands (ev):

   -29.1513 -11.9110 -11.4860 -10.6365  -9.5094  -8.1912   1.9464   2.6211
     5.6135   6.0976   7.0134   7.5724

          k = 0.0854 0.3450 0.3591 (  4190 PWs)   bands (ev):

   -29.1479 -11.7803 -11.6610 -10.6309  -9.4764  -8.2040   1.8704   2.3110
     5.7042   6.3041   7.1831   7.4353

          k = 0.0854 0.5421 0.0718 (  4197 PWs)   bands (ev):

   -29.1096 -12.4177 -10.8889 -10.7367  -9.4328  -8.4829   2.4226   2.6710
     5.0514   5.9777   6.8032   7.4064

          k = 0.0854 0.5421 0.2155 (  4203 PWs)   bands (ev):

   -29.1068 -12.2746 -10.9688 -10.7500  -9.7132  -8.2884   2.0909   2.4591
     5.4919   5.8860   6.9802   7.4971

          k = 0.0854 0.5421 0.3591 (  4202 PWs)   bands (ev):

   -29.1040 -12.1315 -11.0154 -10.7688  -9.9260  -8.2062   1.7672   2.4358
     5.5361   6.2932   6.8993   7.5089

          k = 0.0854-0.4435 0.0718 (  4189 PWs)   bands (ev):

   -29.1262 -12.3467 -10.9612 -10.7097  -9.1157  -8.7920   2.5035   2.8857
     5.1354   6.0933   6.5820   7.2533

          k = 0.0854-0.4435 0.2155 (  4197 PWs)   bands (ev):

   -29.1232 -12.2600 -11.0329 -10.7133  -9.2981  -8.6662   2.4288   2.4762
     5.6279   6.0972   6.6373   7.1931

          k = 0.0854-0.4435 0.3591 (  4204 PWs)   bands (ev):

   -29.1202 -12.0830 -11.2236 -10.7015  -9.6180  -8.3449   1.9587   2.3604
     5.7174   6.3595   6.7690   7.3597

          k = 0.0854-0.2464 0.0718 (  4198 PWs)   bands (ev):

   -29.1874 -11.9107 -11.2684 -10.5808  -9.5915  -8.2726   2.0580   3.4599
     5.6813   5.9758   6.6446   7.4123

          k = 0.0854-0.2464 0.2155 (  4182 PWs)   bands (ev):

   -29.1835 -12.0363 -11.2479 -10.5755  -9.3593  -8.4028   2.0208   2.9749
     5.7979   6.3124   6.7832   7.2146

          k = 0.0854-0.2464 0.3591 (  4183 PWs)   bands (ev):

   -29.1797 -12.1182 -11.2655 -10.5688  -9.1939  -8.4543   2.0329   2.4345
     6.0824   6.2072   6.9960   7.2449

          k = 0.0854-0.0493 0.0718 (  4177 PWs)   bands (ev):

   -29.2316 -11.6768 -11.1147 -10.4942 -10.2199  -7.8505   1.6752   3.8430
     5.6494   5.7768   7.3846   7.7168

          k = 0.0854-0.0493 0.2155 (  4160 PWs)   bands (ev):

   -29.2271 -12.1451 -10.7678 -10.4902  -9.8626  -8.0984   1.7735   3.3916
     5.7654   6.1155   7.0815   7.5437

          k = 0.0854-0.0493 0.3591 (  4172 PWs)   bands (ev):

   -29.2226 -12.4114 -10.6657 -10.4866  -9.2483  -8.5643   1.9952   2.8611
     6.0880   6.5621   6.6787   7.1103

          k = 0.2561 0.4435 0.0718 (  4184 PWs)   bands (ev):

   -29.1097 -12.1882 -11.3643 -10.7477  -8.9458  -8.6988   2.4559   2.6566
     4.8841   6.1951   6.4237   7.6746

          k = 0.2561 0.4435 0.2155 (  4195 PWs)   bands (ev):

   -29.1069 -12.0639 -11.3863 -10.7928  -9.2055  -8.5695   2.2863   2.4248
     5.2693   6.2288   6.6667   7.4426

          k = 0.2561 0.4435 0.3591 (  4193 PWs)   bands (ev):

   -29.1041 -11.8961 -11.4570 -10.8256  -9.3924  -8.5203   2.1281   2.2510
     5.6493   6.2798   6.9039   7.1313

          k = 0.2561 0.6407 0.0718 (  4189 PWs)   bands (ev):

   -29.0975 -12.1387 -11.5337 -10.7243  -8.8694  -8.7141   2.5023   2.5172
     4.7122   6.2498   6.4289   7.7542

          k = 0.2561 0.6407 0.2155 (  4200 PWs)   bands (ev):

   -29.0949 -12.0374 -11.4881 -10.7721  -9.1032  -8.6865   2.3085   2.4336
     5.0953   6.3357   6.5657   7.4527

          k = 0.2561 0.6407 0.3591 (  4201 PWs)   bands (ev):

   -29.0923 -11.9098 -11.4599 -10.8182  -9.3157  -8.6873   2.1388   2.3507
     5.5663   6.4263   6.6703   7.0598

          k = 0.2561-0.3450 0.0718 (  4200 PWs)   bands (ev):

   -29.1307 -12.1792 -11.2203 -10.7358  -9.1988  -8.5318   2.3513   2.8401
     5.2093   6.0376   6.5097   7.5865

          k = 0.2561-0.3450 0.2155 (  4197 PWs)   bands (ev):

   -29.1276 -12.0218 -11.3797 -10.7456  -9.3780  -8.3604   2.1262   2.4937
     5.5050   6.0899   6.8921   7.4592

          k = 0.2561-0.3450 0.3591 (  4201 PWs)   bands (ev):

   -29.1245 -11.8172 -11.5757 -10.7483  -9.4642  -8.3193   1.9892   2.2470
     5.7081   6.2255   7.1708   7.2291

          k = 0.2561-0.1478 0.0718 (  4203 PWs)   bands (ev):

   -29.1755 -11.9408 -11.3091 -10.5778  -9.6013  -8.2273   2.0576   3.2442
     5.7179   5.8360   6.6899   7.5834

          k = 0.2561-0.1478 0.2155 (  4185 PWs)   bands (ev):

   -29.1718 -11.8463 -11.5210 -10.5722  -9.5473  -8.1339   1.8586   2.7765
     5.6219   6.2069   6.9622   7.6732

          k = 0.2561-0.1478 0.3591 (  4183 PWs)   bands (ev):

   -29.1681 -11.9599 -11.4767 -10.5673  -9.4079  -8.2183   1.8645   2.3892
     5.7339   6.3887   7.1439   7.4519

          k = 0.4268 0.7392 0.0718 (  4195 PWs)   bands (ev):

   -29.1020 -12.3173 -11.2011 -10.7360  -9.1361  -8.5882   2.4604   2.6108
     4.8419   6.1148   6.5888   7.6067

          k = 0.4268 0.7392 0.2155 (  4197 PWs)   bands (ev):

   -29.0993 -12.1988 -11.1860 -10.7865  -9.3995  -8.4870   2.2152   2.4705
     5.2553   6.1152   6.7439   7.4686

          k = 0.4268 0.7392 0.3591 (  4200 PWs)   bands (ev):

   -29.0966 -12.0616 -11.1738 -10.8387  -9.6336  -8.4283   1.9439   2.4277
     5.5620   6.3424   6.7487   7.2772

          k = 0.4268-0.2464 0.0718 (  4188 PWs)   bands (ev):

   -29.1184 -12.4029 -10.8790 -10.6600  -9.5568  -8.4217   2.3919   2.6927
     5.2281   5.8857   6.9479   7.2988

          k = 0.4268-0.2464 0.2155 (  4192 PWs)   bands (ev):

   -29.1156 -12.2384 -11.0462 -10.6532  -9.8109  -8.1760   1.9967   2.4469
     5.6410   5.7827   7.1214   7.5446

          k = 0.4268-0.2464 0.3591 (  4201 PWs)   bands (ev):

   -29.1127 -12.0962 -11.1501 -10.6466  -9.9621  -8.1131   1.7048   2.4002
     5.5303   6.2890   7.0186   7.6097

          k =-0.0854-0.3450 0.0718 (  4194 PWs)   bands (ev):

   -29.1547 -12.1601 -11.1250 -10.6480  -9.2518  -8.6136   2.3263   3.1681
     5.4617   6.0702   6.4634   7.2842

          k =-0.0854-0.3450 0.2155 (  4191 PWs)   bands (ev):

   -29.1513 -12.1258 -11.2168 -10.6435  -9.1556  -8.6753   2.2626   2.7031
     5.8007   6.2093   6.7068   7.0462

          k =-0.0854-0.3450 0.3591 (  4190 PWs)   bands (ev):

   -29.1479 -11.9953 -11.4181 -10.6338  -9.3441  -8.4030   2.1252   2.2265
     5.9290   6.2185   7.0456   7.1996

          k =-0.0854-0.5421 0.0718 (  4197 PWs)   bands (ev):

   -29.1096 -12.4365 -10.8505 -10.7493  -9.3279  -8.6140   2.4928   2.7272
     4.9874   6.0509   6.7319   7.3161

          k =-0.0854-0.5421 0.2155 (  4203 PWs)   bands (ev):

   -29.1068 -12.3228 -10.8542 -10.7949  -9.5969  -8.4642   2.2375   2.5083
     5.4911   5.9538   6.7980   7.3636

          k =-0.0854-0.5421 0.3591 (  4202 PWs)   bands (ev):

   -29.1040 -12.1648 -10.9412 -10.7936  -9.8916  -8.2755   1.8216   2.4653
     5.5808   6.3752   6.7045   7.4661

          k =-0.0854 0.4435 0.0718 (  4189 PWs)   bands (ev):

   -29.1262 -12.2943 -11.0430 -10.6996  -9.4162  -8.4281   2.3526   2.7509
     5.2693   5.9059   6.7602   7.4792

          k =-0.0854 0.4435 0.2155 (  4197 PWs)   bands (ev):

   -29.1232 -12.1168 -11.2444 -10.6949  -9.6307  -8.1955   2.0025   2.4623
     5.5534   5.9361   7.0685   7.5674

          k =-0.0854 0.4435 0.3591 (  4204 PWs)   bands (ev):

   -29.1202 -11.9682 -11.3775 -10.6933  -9.7199  -8.1680   1.7940   2.3378
     5.5832   6.2786   7.1030   7.4932

          k =-0.0854 0.2464 0.0718 (  4198 PWs)   bands (ev):

   -29.1874 -11.8454 -11.3488 -10.5796  -9.6381  -8.1930   2.0024   3.4038
     5.6762   5.9480   6.6549   7.5901

          k =-0.0854 0.2464 0.2155 (  4182 PWs)   bands (ev):

   -29.1835 -11.9360 -11.3739 -10.5735  -9.4852  -8.2145   1.8968   2.9158
     5.6745   6.2910   6.8549   7.5442

          k =-0.0854 0.2464 0.3591 (  4183 PWs)   bands (ev):

   -29.1797 -12.0797 -11.3154 -10.5679  -9.2827  -8.3354   1.9407   2.4468
     5.8675   6.3624   7.0605   7.3505

          k =-0.0854 0.0493 0.0718 (  4177 PWs)   bands (ev):

   -29.2316 -11.6908 -11.0949 -10.4945 -10.2198  -7.8591   1.6833   3.8508
     5.6673   5.7596   7.5242   7.5496

          k =-0.0854 0.0493 0.2155 (  4160 PWs)   bands (ev):

   -29.2271 -12.1532 -10.7536 -10.4909  -9.8519  -8.1204   1.7901   3.4043
     5.8080   6.0802   7.1172   7.4571

          k =-0.0854 0.0493 0.3591 (  4172 PWs)   bands (ev):

   -29.2226 -12.4140 -10.6617 -10.4869  -9.2268  -8.5899   2.0049   2.8651
     6.1588   6.4906   6.6529   7.1187

          k =-0.2561-0.6407 0.0718 (  4189 PWs)   bands (ev):

   -29.0975 -12.1312 -11.5425 -10.7240  -8.9303  -8.6489   2.4530   2.5476
     4.7212   6.2249   6.4535   7.7690

          k =-0.2561-0.6407 0.2155 (  4200 PWs)   bands (ev):

   -29.0949 -12.0181 -11.5117 -10.7706  -9.1551  -8.6258   2.2848   2.4249
     5.1000   6.2812   6.6389   7.4697

          k =-0.2561-0.6407 0.3591 (  4201 PWs)   bands (ev):

   -29.0923 -11.8959 -11.4771 -10.8167  -9.3333  -8.6652   2.1348   2.3406
     5.5562   6.3776   6.7937   7.0130

          k =-0.2561 0.3450 0.0718 (  4200 PWs)   bands (ev):

   -29.1307 -12.2103 -11.1748 -10.7412  -9.0265  -8.7323   2.4200   2.8936
     5.1588   6.1543   6.3906   7.4871

          k =-0.2561 0.3450 0.2155 (  4197 PWs)   bands (ev):

   -29.1276 -12.1121 -11.2560 -10.7578  -9.1929  -8.6049   2.3062   2.5044
     5.5355   6.2016   6.6668   7.2940

          k =-0.2561 0.3450 0.3591 (  4201 PWs)   bands (ev):

   -29.1245 -11.9235 -11.4514 -10.7542  -9.4019  -8.4126   2.1130   2.2048
     5.8015   6.2116   6.9592   7.2519

          k =-0.2561 0.1478 0.0718 (  4203 PWs)   bands (ev):

   -29.1755 -12.0467 -11.1743 -10.5785  -9.4659  -8.4351   2.1885   3.3772
     5.6540   5.9855   6.6214   7.2129

          k =-0.2561 0.1478 0.2155 (  4185 PWs)   bands (ev):

   -29.1718 -12.1007 -11.2128 -10.5735  -9.2166  -8.6063   2.1598   2.8979
     5.8974   6.2698   6.8219   6.8922

          k =-0.2561 0.1478 0.3591 (  4183 PWs)   bands (ev):

   -29.1681 -12.0798 -11.3311 -10.5679  -9.2393  -8.4571   2.1002   2.3362
     6.0371   6.2333   7.0483   7.1467

          k =-0.4268 0.2464 0.0718 (  4188 PWs)   bands (ev):

   -29.1184 -12.4427 -10.8248 -10.6603  -9.3413  -8.6925   2.5229   2.8329
     5.0886   6.0485   6.8066   7.0895

          k =-0.4268 0.2464 0.2155 (  4192 PWs)   bands (ev):

   -29.1155 -12.3423 -10.8953 -10.6538  -9.5672  -8.5481   2.3403   2.5164
     5.6955   5.8773   6.7714   7.2155

          k =-0.4268 0.2464 0.3591 (  4201 PWs)   bands (ev):

   -29.1127 -12.1709 -11.0406 -10.6470  -9.8916  -8.2591   1.8351   2.4457
     5.6243   6.4281   6.6896   7.4694

!    total energy              =    -139.95387074 Ry
     Harris-Foulkes estimate   =    -139.95387075 Ry
     estimated scf accuracy    <          2.3E-09 Ry

     The total energy is the sum of the following terms:

     one-electron contribution =     -32.35488985 Ry
     hartree contribution      =      29.62726132 Ry
     xc contribution           =     -26.39049880 Ry
     ewald contribution        =    -110.83574341 Ry

     convergence has been achieved in  12 iterations

     Forces acting on atoms (Ry/au):

     atom    1 type  3   force =    -0.00000000   -0.00000000   -0.00005759
     atom    2 type  2   force =    -0.00000000    0.00000000   -0.00027432
     atom    3 type  2   force =     0.00000000    0.00000000    0.00039141
     atom    4 type  1   force =    -0.00000000   -0.00000000   -0.00005292
     atom    5 type  1   force =    -0.00000000   -0.00000000   -0.00000659

     Total force =     0.000484     Total SCF correction =     0.000101
     SCF correction compared to forces is large: reduce conv_thr to get better values


     entering subroutine stress ...

          total   stress  (Ry/bohr**3)                   (kbar)     P=  497.47
   0.00338143  -0.00000000  -0.00000000        497.43     -0.00     -0.00
  -0.00000000   0.00338143   0.00000000         -0.00    497.43      0.00
  -0.00000000  -0.00000000   0.00338243         -0.00     -0.00    497.57


     Writing output data file CaOH2_ambient.save

     init_run     :     52.03s CPU     53.41s WALL (       2 calls)
     electrons    :   3703.36s CPU   3748.77s WALL (      24 calls)
     update_pot   :    996.89s CPU   1011.54s WALL (      22 calls)
     forces       :    360.56s CPU    361.76s WALL (      24 calls)
     stress       :    804.01s CPU    806.14s WALL (      24 calls)

     Called by init_run:
     wfcinit      :     14.22s CPU     15.23s WALL (       2 calls)
     potinit      :     15.91s CPU     16.04s WALL (       2 calls)

     Called by electrons:
     c_bands      :   3127.37s CPU   3161.32s WALL (     204 calls)
     sum_band     :    523.49s CPU    533.15s WALL (     204 calls)
     v_of_rho     :     26.87s CPU     27.41s WALL (     226 calls)
     mix_rho      :     27.20s CPU     28.19s WALL (     204 calls)

     Called by c_bands:
     init_us_2    :     92.89s CPU     99.60s WALL (   28854 calls)
     cegterg      :   3077.29s CPU   3091.21s WALL (   12852 calls)

     Called by *egterg:
     h_psi        :   2392.61s CPU   2402.87s WALL (   42155 calls)
     g_psi        :     19.86s CPU     19.98s WALL (   29177 calls)
     cdiaghg      :     21.10s CPU     21.20s WALL (   40517 calls)

     Called by h_psi:
     add_vuspsi   :     56.68s CPU     56.94s WALL (   42155 calls)

     General routines
     calbec       :     64.71s CPU     65.09s WALL (   45179 calls)
     fft          :      8.02s CPU      8.07s WALL (    2680 calls)
     ffts         :     12.18s CPU     12.22s WALL (    4122 calls)
     fftw         :   2214.31s CPU   2220.96s WALL ( 1018672 calls)
     davcio       :      9.89s CPU     29.81s WALL (   41706 calls)


     PWSCF        :     1h38m CPU        1h39m WALL


   This run was terminated on:   3:39: 4  20Apr2014            

=------------------------------------------------------------------------------=
   JOB DONE.
=------------------------------------------------------------------------------=
