
     Program PWSCF v.5.0.2 (svn rev. 9392) starts on 20Apr2014 at  4:55:16 

     This program is part of the open-source Quantum ESPRESSO suite
     for quantum simulation of materials; please cite
         "P. Giannozzi et al., J. Phys.:Condens. Matter 21 395502 (2009);
          URL http://www.quantum-espresso.org", 
     in publications or presentations arising from this work. More details at
     http://www.quantum-espresso.org/quote.php

     Serial version

     Current dimensions of program PWSCF are:
     Max number of different atomic species (ntypx) = 10
     Max number of k-points (npk) =  40000
     Max angular momentum in pseudopotentials (lmaxx) =  3
     Waiting for input...
     Reading input from standard input

     G-vector sticks info
     --------------------
     sticks:   dense  smooth     PW     G-vecs:    dense   smooth      PW
     Sum         913     913    337                26035    26035    5883



     bravais-lattice index     =            4
     lattice parameter (alat)  =       6.3764  a.u.
     unit-cell volume          =     269.4254 (a.u.)^3
     number of atoms/cell      =            5
     number of atomic types    =            3
     number of electrons       =        24.00
     number of Kohn-Sham states=           12
     kinetic-energy cutoff     =     100.0000  Ry
     charge density cutoff     =     320.0000  Ry
     convergence threshold     =      1.0E-06
     mixing beta               =       0.3000
     number of iterations used =           16  local-TF  mixing
     Exchange-correlation      = PBE ( 1 4 3 4 0)
     EXX-fraction              =        0.00
     nstep                     =           50


     celldm(1)=   6.376400  celldm(2)=   0.000000  celldm(3)=   1.200000
     celldm(4)=   0.000000  celldm(5)=   0.000000  celldm(6)=   0.000000

     crystal axes: (cart. coord. in units of alat)
               a(1) = (   1.000000   0.000000   0.000000 )  
               a(2) = (  -0.500000   0.866025   0.000000 )  
               a(3) = (   0.000000   0.000000   1.200000 )  

     reciprocal axes: (cart. coord. in units 2 pi/alat)
               b(1) = (  1.000000  0.577350 -0.000000 )  
               b(2) = (  0.000000  1.154701  0.000000 )  
               b(3) = (  0.000000 -0.000000  0.833333 )  


     PseudoPot. # 1 for H  read from file:
     /home/ilia/espresso/pseudo/H.pbe-sp-mt.ncpp
     MD5 check sum: 7a641936b52ccecd26bd1ad87cca5aed
     Pseudo is Norm-conserving, Zval =  1.0
     Generated by old ld1 code (numerical format)
     Using radial grid of 1076 points,  0 beta functions with: 

     PseudoPot. # 2 for O  read from file:
     /home/ilia/espresso/pseudo/O.pbe-sp-mt.ncpp
     MD5 check sum: 8a3d23d410d2f3ebfd0a39faacc72cbb
     Pseudo is Norm-conserving, Zval =  6.0
     Generated by old ld1 code (numerical format)
     Using radial grid of 1130 points,  1 beta functions with: 
                l(1) =   1

     PseudoPot. # 3 for Ca read from file:
     /home/ilia/espresso/pseudo/Ca.pbe-sp-mt_ion2.ncpp
     MD5 check sum: 4bcd670d05521f7b178fdf0a334578ab
     Pseudo is Norm-conserving, Zval = 10.0
     Generated by old ld1 code (numerical format)
     Using radial grid of 1153 points,  1 beta functions with: 
                l(1) =   1

     atomic species   valence    mass     pseudopotential
        H              1.00     1.00700     H ( 1.00)
        O              6.00    16.00000     O ( 1.00)
        Ca            10.00    40.07800     Ca( 1.00)

      6 Sym. Ops. (no inversion) found



   Cartesian axes

     site n.     atom                  positions (alat units)
         1           Ca  tau(   1) = (   0.0000000   0.0000000   0.0000000  )
         2           O   tau(   2) = (   0.0000000   0.5773503   0.3444000  )
         3           O   tau(   3) = (   0.5000000   0.2886751   0.8544000  )
         4           H   tau(   4) = (   0.0000000   0.5773503   0.8088000  )
         5           H   tau(   5) = (   0.5000000   0.2886751   0.3900000  )

     number of k points=    63
                       cart. coord. in units 2pi/alat
        k(    1) = (   0.0833333   0.1443376   0.0694444), wk =   0.0370370
        k(    2) = (   0.0833333   0.1443376   0.2083333), wk =   0.0370370
        k(    3) = (   0.0833333   0.1443376   0.3472222), wk =   0.0370370
        k(    4) = (   0.0833333   0.3367877   0.0694444), wk =   0.0370370
        k(    5) = (   0.0833333   0.3367877   0.2083333), wk =   0.0370370
        k(    6) = (   0.0833333   0.3367877   0.3472222), wk =   0.0370370
        k(    7) = (   0.0833333   0.5292377   0.0694444), wk =   0.0370370
        k(    8) = (   0.0833333   0.5292377   0.2083333), wk =   0.0370370
        k(    9) = (   0.0833333   0.5292377   0.3472222), wk =   0.0370370
        k(   10) = (   0.0833333  -0.4330127   0.0694444), wk =   0.0370370
        k(   11) = (   0.0833333  -0.4330127   0.2083333), wk =   0.0370370
        k(   12) = (   0.0833333  -0.4330127   0.3472222), wk =   0.0370370
        k(   13) = (   0.0833333  -0.2405626   0.0694444), wk =   0.0370370
        k(   14) = (   0.0833333  -0.2405626   0.2083333), wk =   0.0370370
        k(   15) = (   0.0833333  -0.2405626   0.3472222), wk =   0.0370370
        k(   16) = (   0.0833333  -0.0481125   0.0694444), wk =   0.0185185
        k(   17) = (   0.0833333  -0.0481125   0.2083333), wk =   0.0185185
        k(   18) = (   0.0833333  -0.0481125   0.3472222), wk =   0.0185185
        k(   19) = (   0.2500000   0.4330127   0.0694444), wk =   0.0370370
        k(   20) = (   0.2500000   0.4330127   0.2083333), wk =   0.0370370
        k(   21) = (   0.2500000   0.4330127   0.3472222), wk =   0.0370370
        k(   22) = (   0.2500000   0.6254628   0.0694444), wk =   0.0370370
        k(   23) = (   0.2500000   0.6254628   0.2083333), wk =   0.0370370
        k(   24) = (   0.2500000   0.6254628   0.3472222), wk =   0.0370370
        k(   25) = (   0.2500000  -0.3367877   0.0694444), wk =   0.0370370
        k(   26) = (   0.2500000  -0.3367877   0.2083333), wk =   0.0370370
        k(   27) = (   0.2500000  -0.3367877   0.3472222), wk =   0.0370370
        k(   28) = (   0.2500000  -0.1443376   0.0694444), wk =   0.0185185
        k(   29) = (   0.2500000  -0.1443376   0.2083333), wk =   0.0185185
        k(   30) = (   0.2500000  -0.1443376   0.3472222), wk =   0.0185185
        k(   31) = (   0.4166667   0.7216878   0.0694444), wk =   0.0370370
        k(   32) = (   0.4166667   0.7216878   0.2083333), wk =   0.0370370
        k(   33) = (   0.4166667   0.7216878   0.3472222), wk =   0.0370370
        k(   34) = (   0.4166667  -0.2405626   0.0694444), wk =   0.0185185
        k(   35) = (   0.4166667  -0.2405626   0.2083333), wk =   0.0185185
        k(   36) = (   0.4166667  -0.2405626   0.3472222), wk =   0.0185185
        k(   37) = (  -0.0833333  -0.3367877   0.0694444), wk =   0.0370370
        k(   38) = (  -0.0833333  -0.3367877   0.2083333), wk =   0.0370370
        k(   39) = (  -0.0833333  -0.3367877   0.3472222), wk =   0.0370370
        k(   40) = (  -0.0833333  -0.5292377   0.0694444), wk =   0.0370370
        k(   41) = (  -0.0833333  -0.5292377   0.2083333), wk =   0.0370370
        k(   42) = (  -0.0833333  -0.5292377   0.3472222), wk =   0.0370370
        k(   43) = (  -0.0833333   0.4330127   0.0694444), wk =   0.0370370
        k(   44) = (  -0.0833333   0.4330127   0.2083333), wk =   0.0370370
        k(   45) = (  -0.0833333   0.4330127   0.3472222), wk =   0.0370370
        k(   46) = (  -0.0833333   0.2405626   0.0694444), wk =   0.0370370
        k(   47) = (  -0.0833333   0.2405626   0.2083333), wk =   0.0370370
        k(   48) = (  -0.0833333   0.2405626   0.3472222), wk =   0.0370370
        k(   49) = (  -0.0833333   0.0481125   0.0694444), wk =   0.0185185
        k(   50) = (  -0.0833333   0.0481125   0.2083333), wk =   0.0185185
        k(   51) = (  -0.0833333   0.0481125   0.3472222), wk =   0.0185185
        k(   52) = (  -0.2500000  -0.6254628   0.0694444), wk =   0.0370370
        k(   53) = (  -0.2500000  -0.6254628   0.2083333), wk =   0.0370370
        k(   54) = (  -0.2500000  -0.6254628   0.3472222), wk =   0.0370370
        k(   55) = (  -0.2500000   0.3367877   0.0694444), wk =   0.0370370
        k(   56) = (  -0.2500000   0.3367877   0.2083333), wk =   0.0370370
        k(   57) = (  -0.2500000   0.3367877   0.3472222), wk =   0.0370370
        k(   58) = (  -0.2500000   0.1443376   0.0694444), wk =   0.0185185
        k(   59) = (  -0.2500000   0.1443376   0.2083333), wk =   0.0185185
        k(   60) = (  -0.2500000   0.1443376   0.3472222), wk =   0.0185185
        k(   61) = (  -0.4166667   0.2405626   0.0694444), wk =   0.0185185
        k(   62) = (  -0.4166667   0.2405626   0.2083333), wk =   0.0185185
        k(   63) = (  -0.4166667   0.2405626   0.3472222), wk =   0.0185185

     Dense  grid:    26035 G-vectors     FFT dimensions: (  40,  40,  45)

     Largest allocated arrays     est. size (Mb)     dimensions
        Kohn-Sham Wavefunctions         0.84 Mb     (   4568,   12)
        NL pseudopotentials             0.63 Mb     (   4568,    9)
        Each V/rho on FFT grid          1.10 Mb     (  72000)
        Each G-vector array             0.20 Mb     (  26035)
        G-vector shells                 0.20 Mb     (  26035)
     Largest temporary arrays     est. size (Mb)     dimensions
        Auxiliary wavefunctions         3.35 Mb     (   4568,   48)
        Each subspace H/S matrix        0.04 Mb     (  48,  48)
        Each <psi_i|beta_j> matrix      0.00 Mb     (      9,   12)
        Arrays for rho mixing          17.58 Mb     (  72000,  16)

     Initial potential from superposition of free atoms

     starting charge   21.99998, renormalised to   24.00000
     Starting wfc are   14 randomized atomic wfcs

     total cpu time spent up to now is       42.4 secs

     per-process dynamical memory:    16.1 Mb

     Self-consistent Calculation

     iteration #  1     ecut=   100.00 Ry     beta=0.30
     Davidson diagonalization with overlap
     ethr =  1.00E-02,  avg # of iterations =  2.0

     total cpu time spent up to now is       64.9 secs

     total energy              =    -139.77634174 Ry
     Harris-Foulkes estimate   =    -139.85804412 Ry
     estimated scf accuracy    <       0.41024085 Ry

     iteration #  2     ecut=   100.00 Ry     beta=0.30
     Davidson diagonalization with overlap
     ethr =  1.71E-03,  avg # of iterations =  1.0

     total cpu time spent up to now is       79.9 secs

     total energy              =    -139.63487091 Ry
     Harris-Foulkes estimate   =    -139.78381823 Ry
     estimated scf accuracy    <       0.24598472 Ry

     iteration #  3     ecut=   100.00 Ry     beta=0.30
     Davidson diagonalization with overlap
     ethr =  1.02E-03,  avg # of iterations =  2.0

     total cpu time spent up to now is       97.3 secs

     total energy              =    -139.66005940 Ry
     Harris-Foulkes estimate   =    -139.67208858 Ry
     estimated scf accuracy    <       0.02531608 Ry

     iteration #  4     ecut=   100.00 Ry     beta=0.30
     Davidson diagonalization with overlap
     ethr =  1.05E-04,  avg # of iterations =  2.6

     total cpu time spent up to now is      116.4 secs

     total energy              =    -139.66468097 Ry
     Harris-Foulkes estimate   =    -139.66513041 Ry
     estimated scf accuracy    <       0.00279394 Ry

     iteration #  5     ecut=   100.00 Ry     beta=0.30
     Davidson diagonalization with overlap
     ethr =  1.16E-05,  avg # of iterations =  1.4

     total cpu time spent up to now is      131.1 secs

     total energy              =    -139.66423540 Ry
     Harris-Foulkes estimate   =    -139.66480842 Ry
     estimated scf accuracy    <       0.00166243 Ry

     iteration #  6     ecut=   100.00 Ry     beta=0.30
     Davidson diagonalization with overlap
     ethr =  6.93E-06,  avg # of iterations =  2.3

     total cpu time spent up to now is      148.5 secs

     total energy              =    -139.66440168 Ry
     Harris-Foulkes estimate   =    -139.66443825 Ry
     estimated scf accuracy    <       0.00010275 Ry

     iteration #  7     ecut=   100.00 Ry     beta=0.30
     Davidson diagonalization with overlap
     ethr =  4.28E-07,  avg # of iterations =  3.0

     total cpu time spent up to now is      168.6 secs

     total energy              =    -139.66443076 Ry
     Harris-Foulkes estimate   =    -139.66442904 Ry
     estimated scf accuracy    <       0.00001136 Ry

     iteration #  8     ecut=   100.00 Ry     beta=0.30
     Davidson diagonalization with overlap
     ethr =  4.74E-08,  avg # of iterations =  3.0

     total cpu time spent up to now is      189.2 secs

     total energy              =    -139.66443154 Ry
     Harris-Foulkes estimate   =    -139.66443566 Ry
     estimated scf accuracy    <       0.00001227 Ry

     iteration #  9     ecut=   100.00 Ry     beta=0.30
     Davidson diagonalization with overlap
     ethr =  4.74E-08,  avg # of iterations =  2.2

     total cpu time spent up to now is      206.9 secs

     End of self-consistent calculation

          k = 0.0833 0.1443 0.0694 (  4531 PWs)   bands (ev):

   -30.6285 -12.5270 -12.2661 -11.9733  -9.7029  -7.7872   3.1512   4.3234
     5.1207   5.6082   6.3512   6.7386

          k = 0.0833 0.1443 0.2083 (  4541 PWs)   bands (ev):

   -30.6263 -12.6738 -12.2191 -11.9706  -9.4047  -7.9853   2.8059   3.8746
     5.2115   5.7011   6.3846   6.7923

          k = 0.0833 0.1443 0.3472 (  4548 PWs)   bands (ev):

   -30.6241 -12.7900 -12.1934 -11.9678  -8.9788  -8.3217   2.7602   3.1581
     5.5089   5.9285   6.2047   6.6346

          k = 0.0833 0.3368 0.0694 (  4545 PWs)   bands (ev):

   -30.5845 -12.8141 -12.3257 -12.0637  -9.0859  -8.0574   2.9674   3.0700
     5.0117   5.7206   6.2936   6.7136

          k = 0.0833 0.3368 0.2083 (  4549 PWs)   bands (ev):

   -30.5827 -12.7496 -12.4129 -12.0598  -9.1353  -7.9584   2.2770   2.7477
     5.0082   6.2525   6.6569   6.7307

          k = 0.0833 0.3368 0.3472 (  4546 PWs)   bands (ev):

   -30.5808 -12.7007 -12.4842 -12.0565  -9.0814  -7.9923   2.0170   2.3833
     5.1104   6.3459   6.6439   6.9178

          k = 0.0833 0.5292 0.0694 (  4557 PWs)   bands (ev):

   -30.5520 -13.1266 -12.1654 -12.1208  -8.8172  -8.1666   2.2092   2.9822
     5.0207   5.9845   6.1338   6.5307

          k = 0.0833 0.5292 0.2083 (  4553 PWs)   bands (ev):

   -30.5504 -13.0690 -12.1865 -12.1311  -9.0356  -7.9765   1.8888   2.4821
     4.9698   6.2179   6.5143   6.7844

          k = 0.0833 0.5292 0.3472 (  4556 PWs)   bands (ev):

   -30.5489 -13.0148 -12.2108 -12.1328  -9.1642  -7.8910   1.6048   2.1898
     4.9347   6.4721   6.6697   6.8760

          k = 0.0833-0.4330 0.0694 (  4549 PWs)   bands (ev):

   -30.5639 -13.0309 -12.2086 -12.1071  -8.6369  -8.4247   2.5414   3.2563
     4.9818   5.6205   6.2835   6.4076

          k = 0.0833-0.4330 0.2083 (  4548 PWs)   bands (ev):

   -30.5623 -12.9869 -12.2452 -12.1070  -8.7612  -8.3209   2.2507   2.7083
     5.1713   5.8748   6.3989   6.5909

          k = 0.0833-0.4330 0.3472 (  4557 PWs)   bands (ev):

   -30.5606 -12.9224 -12.3022 -12.1019  -9.0289  -8.0456   1.8912   2.2337
     5.1035   6.2490   6.6953   6.7544

          k = 0.0833-0.2406 0.0694 (  4535 PWs)   bands (ev):

   -30.6081 -12.5866 -12.3981 -12.0157  -9.3347  -7.9830   3.1401   3.8806
     5.0614   5.4655   6.2909   6.5965

          k = 0.0833-0.2406 0.2083 (  4532 PWs)   bands (ev):

   -30.6061 -12.6390 -12.4056 -12.0126  -9.1294  -8.1232   2.6682   3.3935
     5.2840   5.8281   6.2313   6.7210

          k = 0.0833-0.2406 0.3472 (  4555 PWs)   bands (ev):

   -30.6041 -12.6797 -12.4197 -12.0090  -8.9335  -8.2470   2.4802   2.7143
     5.5276   5.8340   6.4060   6.8524

          k = 0.0833-0.0481 0.0694 (  4547 PWs)   bands (ev):

   -30.6402 -12.5714 -12.0701 -11.9505  -9.9432  -7.6838   3.1216   4.7377
     5.0798   5.6109   6.5275   6.8535

          k = 0.0833-0.0481 0.2083 (  4538 PWs)   bands (ev):

   -30.6379 -12.7285 -12.0473 -11.9481  -9.5743  -7.9284   2.9272   4.2624
     5.1894   5.5405   6.5085   6.7041

          k = 0.0833-0.0481 0.3472 (  4540 PWs)   bands (ev):

   -30.6356 -12.8610 -12.0325 -11.9458  -9.0254  -8.3728   3.0007   3.4788
     5.4784   5.9826   6.1091   6.3326

          k = 0.2500 0.4330 0.0694 (  4559 PWs)   bands (ev):

   -30.5520 -12.9426 -12.4169 -12.1253  -8.5756  -8.3321   2.6762   2.7091
     4.3952   5.9319   6.2653   6.7553

          k = 0.2500 0.4330 0.2083 (  4556 PWs)   bands (ev):

   -30.5505 -12.8921 -12.4112 -12.1555  -8.7519  -8.2095   2.2678   2.3438
     4.6764   6.2321   6.4839   6.6715

          k = 0.2500 0.4330 0.3472 (  4549 PWs)   bands (ev):

   -30.5489 -12.8372 -12.4115 -12.1823  -8.8759  -8.1413   1.9826   2.0194
     4.9722   6.1159   6.6174   6.8650

          k = 0.2500 0.6255 0.0694 (  4559 PWs)   bands (ev):

   -30.5433 -12.9260 -12.5315 -12.1008  -8.4655  -8.3704   2.5023   2.6761
     4.2099   6.0834   6.2207   6.7897

          k = 0.2500 0.6255 0.2083 (  4568 PWs)   bands (ev):

   -30.5418 -12.8824 -12.5086 -12.1298  -8.6249  -8.2987   2.1943   2.3175
     4.5023   6.2778   6.5049   6.6412

          k = 0.2500 0.6255 0.3472 (  4556 PWs)   bands (ev):

   -30.5403 -12.8349 -12.4876 -12.1584  -8.7555  -8.2557   1.9154   2.0406
     4.8909   6.0530   6.6750   6.7646

          k = 0.2500-0.3368 0.0694 (  4544 PWs)   bands (ev):

   -30.5671 -12.9110 -12.3114 -12.1329  -8.8270  -8.1943   2.8016   2.8926
     4.7120   5.7939   6.2653   6.7387

          k = 0.2500-0.3368 0.2083 (  4551 PWs)   bands (ev):

   -30.5655 -12.8520 -12.3563 -12.1413  -8.9573  -8.0637   2.2465   2.5215
     4.8883   6.2809   6.4834   6.7063

          k = 0.2500-0.3368 0.3472 (  4549 PWs)   bands (ev):

   -30.5638 -12.7948 -12.4037 -12.1447  -9.0079  -8.0273   1.9477   2.1845
     5.0597   6.2236   6.6261   6.9368

          k = 0.2500-0.1443 0.0694 (  4543 PWs)   bands (ev):

   -30.5995 -12.6726 -12.3848 -12.0152  -9.2848  -7.9596   3.0596   3.3553
     5.1049   5.6686   6.3742   6.7165

          k = 0.2500-0.1443 0.2083 (  4539 PWs)   bands (ev):

   -30.5975 -12.6088 -12.4934 -12.0119  -9.2342  -7.9345   2.3994   3.0025
     5.0418   6.1539   6.7361   6.7750

          k = 0.2500-0.1443 0.3472 (  4560 PWs)   bands (ev):

   -30.5956 -12.6183 -12.5278 -12.0089  -9.0767  -8.0487   2.1983   2.5767
     5.1518   6.4473   6.5815   6.7761

          k = 0.4167 0.7217 0.0694 (  4568 PWs)   bands (ev):

   -30.5465 -13.0549 -12.3326 -12.1102  -8.6394  -8.2619   2.3211   2.8441
     4.5701   6.0571   6.1527   6.6737

          k = 0.4167 0.7217 0.2083 (  4565 PWs)   bands (ev):

   -30.5450 -13.0046 -12.3189 -12.1408  -8.8283  -8.1377   2.0346   2.4172
     4.7438   6.1729   6.4833   6.7442

          k = 0.4167 0.7217 0.3472 (  4544 PWs)   bands (ev):

   -30.5434 -12.9526 -12.3043 -12.1715  -8.9752  -8.0574   1.7469   2.1280
     4.9217   6.2117   6.7178   6.7745

          k = 0.4167-0.2406 0.0694 (  4549 PWs)   bands (ev):

   -30.5584 -13.1091 -12.1663 -12.0789  -8.9186  -8.1129   2.2543   3.0208
     5.2071   6.0154   6.1198   6.4646

          k = 0.4167-0.2406 0.2083 (  4544 PWs)   bands (ev):

   -30.5567 -13.0468 -12.2149 -12.0749  -9.1354  -7.8949   1.8637   2.5075
     5.0276   6.2857   6.6428   6.7602

          k = 0.4167-0.2406 0.3472 (  4565 PWs)   bands (ev):

   -30.5552 -12.9940 -12.2537 -12.0710  -9.2240  -7.8347   1.5920   2.2224
     4.9500   6.5717   6.6840   6.9253

          k =-0.0833-0.3368 0.0694 (  4545 PWs)   bands (ev):

   -30.5845 -12.8365 -12.3047 -12.0650  -8.9440  -8.2258   2.9206   3.5197
     4.9501   5.4923   6.2976   6.4730

          k =-0.0833-0.3368 0.2083 (  4549 PWs)   bands (ev):

   -30.5827 -12.8077 -12.3577 -12.0621  -8.8477  -8.3006   2.5118   2.9651
     5.2811   5.8341   6.2731   6.6052

          k =-0.0833-0.3368 0.3472 (  4546 PWs)   bands (ev):

   -30.5808 -12.7446 -12.4417 -12.0574  -8.9513  -8.1504   2.2486   2.3184
     5.3031   6.0453   6.5769   6.8439

          k =-0.0833-0.5292 0.0694 (  4557 PWs)   bands (ev):

   -30.5520 -13.1317 -12.1582 -12.1240  -8.7025  -8.2944   2.2501   3.0785
     5.0192   5.8114   6.2135   6.4488

          k =-0.0833-0.5292 0.2083 (  4553 PWs)   bands (ev):

   -30.5504 -13.0806 -12.1667 -12.1417  -8.9082  -8.1303   1.9913   2.5637
     5.0451   6.0218   6.4768   6.6864

          k =-0.0833-0.5292 0.3472 (  4556 PWs)   bands (ev):

   -30.5489 -13.0214 -12.2021 -12.1362  -9.1175  -7.9511   1.6613   2.2062
     4.9769   6.3693   6.7159   6.7841

          k =-0.0833 0.4330 0.0694 (  4549 PWs)   bands (ev):

   -30.5639 -13.0162 -12.2235 -12.1040  -8.9132  -8.1189   2.4720   2.9709
     5.0125   5.9212   6.1893   6.6273

          k =-0.0833 0.4330 0.2083 (  4548 PWs)   bands (ev):

   -30.5623 -12.9529 -12.2789 -12.1018  -9.0969  -7.9251   2.0012   2.5146
     4.9604   6.3418   6.5499   6.8084

          k =-0.0833 0.4330 0.3472 (  4557 PWs)   bands (ev):

   -30.5606 -12.9019 -12.3222 -12.0997  -9.1466  -7.8972   1.7313   2.2235
     4.9817   6.5388   6.5891   6.9444

          k =-0.0833 0.2406 0.0694 (  4535 PWs)   bands (ev):

   -30.6081 -12.5506 -12.4331 -12.0153  -9.3743  -7.9316   3.1084   3.6998
     5.0399   5.5820   6.3426   6.7536

          k =-0.0833 0.2406 0.2083 (  4532 PWs)   bands (ev):

   -30.6061 -12.5756 -12.4671 -12.0119  -9.2298  -7.9986   2.5660   3.2514
     5.0971   6.0163   6.5567   6.7606

          k =-0.0833 0.2406 0.3472 (  4555 PWs)   bands (ev):

   -30.6041 -12.6572 -12.4413 -12.0087  -9.0086  -8.1595   2.3941   2.7129
     5.2984   6.1202   6.5508   6.7765

          k =-0.0833 0.0481 0.0694 (  4547 PWs)   bands (ev):

   -30.6402 -12.5734 -12.0684 -11.9506  -9.9394  -7.6893   3.1331   4.7121
     5.1702   5.5932   6.5534   6.7187

          k =-0.0833 0.0481 0.2083 (  4538 PWs)   bands (ev):

   -30.6379 -12.7312 -12.0449 -11.9484  -9.5636  -7.9424   2.9430   4.3028
     5.2965   5.4480   6.3578   6.7549

          k =-0.0833 0.0481 0.3472 (  4540 PWs)   bands (ev):

   -30.6355 -12.8621 -12.0316 -11.9459  -9.0109  -8.3890   3.0049   3.4961
     5.6404   5.8316   5.9361   6.4686

          k =-0.2500-0.6255 0.0694 (  4559 PWs)   bands (ev):

   -30.5433 -12.9241 -12.5333 -12.1008  -8.5267  -8.3071   2.4945   2.6622
     4.2177   6.1071   6.1987   6.8102

          k =-0.2500-0.6255 0.2083 (  4568 PWs)   bands (ev):

   -30.5418 -12.8782 -12.5127 -12.1296  -8.6743  -8.2451   2.1720   2.3096
     4.4992   6.3452   6.4522   6.6712

          k =-0.2500-0.6255 0.3472 (  4556 PWs)   bands (ev):

   -30.5403 -12.8325 -12.4900 -12.1582  -8.7731  -8.2360   1.9032   2.0409
     4.8773   6.0923   6.6493   6.7806

          k =-0.2500 0.3368 0.0694 (  4544 PWs)   bands (ev):

   -30.5671 -12.9198 -12.3017 -12.1349  -8.7103  -8.3239   2.7625   3.0986
     4.6612   5.7106   6.2982   6.6212

          k =-0.2500 0.3368 0.2083 (  4551 PWs)   bands (ev):

   -30.5655 -12.8733 -12.3324 -12.1460  -8.7950  -8.2520   2.3745   2.5908
     4.9643   6.0394   6.5296   6.5463

          k =-0.2500 0.3368 0.3472 (  4549 PWs)   bands (ev):

   -30.5638 -12.8089 -12.3884 -12.1469  -8.9451  -8.1034   2.0746   2.1324
     5.1462   6.0489   6.6677   6.8744

          k =-0.2500 0.1443 0.0694 (  4543 PWs)   bands (ev):

   -30.5995 -12.7104 -12.3499 -12.0155  -9.1773  -8.0947   3.0815   3.7955
     5.2048   5.3159   6.2868   6.4267

          k =-0.2500 0.1443 0.2083 (  4539 PWs)   bands (ev):

   -30.5975 -12.7176 -12.3897 -12.0125  -8.9752  -8.2503   2.6376   3.2938
     5.5544   5.5972   6.1062   6.6635

          k =-0.2500 0.1443 0.3472 (  4560 PWs)   bands (ev):

   -30.5956 -12.6917 -12.4568 -12.0091  -8.9226  -8.2321   2.4222   2.5437
     5.4073   6.1513   6.2486   6.8681

          k =-0.4167 0.2406 0.0694 (  4549 PWs)   bands (ev):

   -30.5584 -13.1202 -12.1580 -12.0791  -8.6848  -8.3743   2.3337   3.2525
     5.3290   5.5052   6.2720   6.3077

          k =-0.4167 0.2406 0.2083 (  4544 PWs)   bands (ev):

   -30.5567 -13.0720 -12.1952 -12.0752  -8.8686  -8.2177   2.0816   2.6914
     5.2172   5.9365   6.3833   6.6182

          k =-0.4167 0.2406 0.3472 (  4565 PWs)   bands (ev):

   -30.5552 -13.0086 -12.2418 -12.0712  -9.1282  -7.9590   1.7187   2.2522
     5.0280   6.5605   6.5711   6.7378

!    total energy              =    -139.66443263 Ry
     Harris-Foulkes estimate   =    -139.66443299 Ry
     estimated scf accuracy    <       0.00000055 Ry

     The total energy is the sum of the following terms:

     one-electron contribution =     -31.97812452 Ry
     hartree contribution      =      28.59564857 Ry
     xc contribution           =     -25.69828264 Ry
     ewald contribution        =    -110.58367403 Ry

     convergence has been achieved in   9 iterations

     Forces acting on atoms (Ry/au):

     atom    1 type  3   force =     0.00000000    0.00000000   -0.00064417
     atom    2 type  2   force =     0.00000000   -0.00000000    0.04775560
     atom    3 type  2   force =     0.00000000    0.00000000   -0.04751270
     atom    4 type  1   force =     0.00000000    0.00000000   -0.14509409
     atom    5 type  1   force =     0.00000000   -0.00000000    0.14549537

     Total force =     0.216240     Total SCF correction =     0.001227


     entering subroutine stress ...

          total   stress  (Ry/bohr**3)                   (kbar)     P=  146.36
   0.00154714   0.00000000   0.00000000        227.59      0.00      0.00
   0.00000000   0.00154714  -0.00000000          0.00    227.59     -0.00
   0.00000000  -0.00000000  -0.00010946          0.00     -0.00    -16.10


     BFGS Geometry Optimization

     number of scf cycles    =   1
     number of bfgs steps    =   0

     enthalpy new            =    -138.1992190620 Ry

     new trust radius        =       0.4553091951 bohr
     new conv_thr            =       0.0000010000 Ry

     new unit-cell volume =    189.10514 a.u.^3 (    28.02249 Ang^3 )

CELL_PARAMETERS (alat=  6.37640000)
   0.902721158  -0.000000000  -0.000000000
  -0.451360579   0.781779456  -0.000000000
   0.000000000  -0.000000000   1.033567396

ATOMIC_POSITIONS (crystal)
Ca       0.000000000   0.000000000  -0.000084187
O        0.333333333   0.666666667   0.293241191
O        0.666666667   0.333333333   0.705790554
H        0.333333333   0.666666667   0.655037617
H        0.666666667   0.333333333   0.344014826



     Writing output data file CaOH2_ambient.save
     NEW-OLD atomic charge density approx. for the potential
     NEW k-points:
        k(    1) = (   0.0923135   0.1598916   0.0806269), wk =   0.0370370
        k(    2) = (   0.0923135   0.1598916   0.2418807), wk =   0.0370370
        k(    3) = (   0.0923135   0.1598916   0.4031345), wk =   0.0370370
        k(    4) = (   0.0923135   0.3730805   0.0806269), wk =   0.0370370
        k(    5) = (   0.0923135   0.3730805   0.2418807), wk =   0.0370370
        k(    6) = (   0.0923135   0.3730805   0.4031345), wk =   0.0370370
        k(    7) = (   0.0923135   0.5862694   0.0806269), wk =   0.0370370
        k(    8) = (   0.0923135   0.5862694   0.2418807), wk =   0.0370370
        k(    9) = (   0.0923135   0.5862694   0.4031345), wk =   0.0370370
        k(   10) = (   0.0923135  -0.4796749   0.0806269), wk =   0.0370370
        k(   11) = (   0.0923135  -0.4796749   0.2418807), wk =   0.0370370
        k(   12) = (   0.0923135  -0.4796749   0.4031345), wk =   0.0370370
        k(   13) = (   0.0923135  -0.2664861   0.0806269), wk =   0.0370370
        k(   14) = (   0.0923135  -0.2664861   0.2418807), wk =   0.0370370
        k(   15) = (   0.0923135  -0.2664861   0.4031345), wk =   0.0370370
        k(   16) = (   0.0923135  -0.0532972   0.0806269), wk =   0.0185185
        k(   17) = (   0.0923135  -0.0532972   0.2418807), wk =   0.0185185
        k(   18) = (   0.0923135  -0.0532972   0.4031345), wk =   0.0185185
        k(   19) = (   0.2769404   0.4796749   0.0806269), wk =   0.0370370
        k(   20) = (   0.2769404   0.4796749   0.2418807), wk =   0.0370370
        k(   21) = (   0.2769404   0.4796749   0.4031345), wk =   0.0370370
        k(   22) = (   0.2769404   0.6928638   0.0806269), wk =   0.0370370
        k(   23) = (   0.2769404   0.6928638   0.2418807), wk =   0.0370370
        k(   24) = (   0.2769404   0.6928638   0.4031345), wk =   0.0370370
        k(   25) = (   0.2769404  -0.3730805   0.0806269), wk =   0.0370370
        k(   26) = (   0.2769404  -0.3730805   0.2418807), wk =   0.0370370
        k(   27) = (   0.2769404  -0.3730805   0.4031345), wk =   0.0370370
        k(   28) = (   0.2769404  -0.1598916   0.0806269), wk =   0.0185185
        k(   29) = (   0.2769404  -0.1598916   0.2418807), wk =   0.0185185
        k(   30) = (   0.2769404  -0.1598916   0.4031345), wk =   0.0185185
        k(   31) = (   0.4615674   0.7994582   0.0806269), wk =   0.0370370
        k(   32) = (   0.4615674   0.7994582   0.2418807), wk =   0.0370370
        k(   33) = (   0.4615674   0.7994582   0.4031345), wk =   0.0370370
        k(   34) = (   0.4615674  -0.2664861   0.0806269), wk =   0.0185185
        k(   35) = (   0.4615674  -0.2664861   0.2418807), wk =   0.0185185
        k(   36) = (   0.4615674  -0.2664861   0.4031345), wk =   0.0185185
        k(   37) = (  -0.0923135  -0.3730805   0.0806269), wk =   0.0370370
        k(   38) = (  -0.0923135  -0.3730805   0.2418807), wk =   0.0370370
        k(   39) = (  -0.0923135  -0.3730805   0.4031345), wk =   0.0370370
        k(   40) = (  -0.0923135  -0.5862694   0.0806269), wk =   0.0370370
        k(   41) = (  -0.0923135  -0.5862694   0.2418807), wk =   0.0370370
        k(   42) = (  -0.0923135  -0.5862694   0.4031345), wk =   0.0370370
        k(   43) = (  -0.0923135   0.4796749   0.0806269), wk =   0.0370370
        k(   44) = (  -0.0923135   0.4796749   0.2418807), wk =   0.0370370
        k(   45) = (  -0.0923135   0.4796749   0.4031345), wk =   0.0370370
        k(   46) = (  -0.0923135   0.2664861   0.0806269), wk =   0.0370370
        k(   47) = (  -0.0923135   0.2664861   0.2418807), wk =   0.0370370
        k(   48) = (  -0.0923135   0.2664861   0.4031345), wk =   0.0370370
        k(   49) = (  -0.0923135   0.0532972   0.0806269), wk =   0.0185185
        k(   50) = (  -0.0923135   0.0532972   0.2418807), wk =   0.0185185
        k(   51) = (  -0.0923135   0.0532972   0.4031345), wk =   0.0185185
        k(   52) = (  -0.2769404  -0.6928638   0.0806269), wk =   0.0370370
        k(   53) = (  -0.2769404  -0.6928638   0.2418807), wk =   0.0370370
        k(   54) = (  -0.2769404  -0.6928638   0.4031345), wk =   0.0370370
        k(   55) = (  -0.2769404   0.3730805   0.0806269), wk =   0.0370370
        k(   56) = (  -0.2769404   0.3730805   0.2418807), wk =   0.0370370
        k(   57) = (  -0.2769404   0.3730805   0.4031345), wk =   0.0370370
        k(   58) = (  -0.2769404   0.1598916   0.0806269), wk =   0.0185185
        k(   59) = (  -0.2769404   0.1598916   0.2418807), wk =   0.0185185
        k(   60) = (  -0.2769404   0.1598916   0.4031345), wk =   0.0185185
        k(   61) = (  -0.4615674   0.2664861   0.0806269), wk =   0.0185185
        k(   62) = (  -0.4615674   0.2664861   0.2418807), wk =   0.0185185
        k(   63) = (  -0.4615674   0.2664861   0.4031345), wk =   0.0185185
     extrapolated charge   14.65576, renormalised to   24.00000

     total cpu time spent up to now is      304.0 secs

     per-process dynamical memory:    21.2 Mb

     Self-consistent Calculation

     iteration #  1     ecut=   100.00 Ry     beta=0.30
     Davidson diagonalization with overlap
     ethr =  1.00E-06,  avg # of iterations =  7.4

     total cpu time spent up to now is      350.9 secs

     total energy              =    -136.57604545 Ry
     Harris-Foulkes estimate   =    -144.93762208 Ry
     estimated scf accuracy    <       9.64001084 Ry

     iteration #  2     ecut=   100.00 Ry     beta=0.30
     Davidson diagonalization with overlap
     ethr =  1.00E-02,  avg # of iterations =  3.0

     total cpu time spent up to now is      373.5 secs

     total energy              =    -139.57044487 Ry
     Harris-Foulkes estimate   =    -139.69410365 Ry
     estimated scf accuracy    <       0.59290432 Ry

     iteration #  3     ecut=   100.00 Ry     beta=0.30
     Davidson diagonalization with overlap
     ethr =  2.47E-03,  avg # of iterations =  1.0

     total cpu time spent up to now is      387.8 secs

     total energy              =    -139.36345370 Ry
     Harris-Foulkes estimate   =    -139.58033080 Ry
     estimated scf accuracy    <       0.34292716 Ry

     iteration #  4     ecut=   100.00 Ry     beta=0.30
     Davidson diagonalization with overlap
     ethr =  1.43E-03,  avg # of iterations =  2.0

     total cpu time spent up to now is      405.4 secs

     total energy              =    -139.41541718 Ry
     Harris-Foulkes estimate   =    -139.41901189 Ry
     estimated scf accuracy    <       0.01660123 Ry

     iteration #  5     ecut=   100.00 Ry     beta=0.30
     Davidson diagonalization with overlap
     ethr =  6.92E-05,  avg # of iterations =  2.0

     total cpu time spent up to now is      424.0 secs

     total energy              =    -139.41392601 Ry
     Harris-Foulkes estimate   =    -139.41740286 Ry
     estimated scf accuracy    <       0.00564043 Ry

     iteration #  6     ecut=   100.00 Ry     beta=0.30
     Davidson diagonalization with overlap
     ethr =  2.35E-05,  avg # of iterations =  2.1

     total cpu time spent up to now is      445.1 secs

     total energy              =    -139.41498960 Ry
     Harris-Foulkes estimate   =    -139.41522913 Ry
     estimated scf accuracy    <       0.00104507 Ry

     iteration #  7     ecut=   100.00 Ry     beta=0.30
     Davidson diagonalization with overlap
     ethr =  4.35E-06,  avg # of iterations =  1.3

     total cpu time spent up to now is      459.7 secs

     total energy              =    -139.41484367 Ry
     Harris-Foulkes estimate   =    -139.41503361 Ry
     estimated scf accuracy    <       0.00036784 Ry

     iteration #  8     ecut=   100.00 Ry     beta=0.30
     Davidson diagonalization with overlap
     ethr =  1.53E-06,  avg # of iterations =  2.5

     total cpu time spent up to now is      479.7 secs

     total energy              =    -139.41498443 Ry
     Harris-Foulkes estimate   =    -139.41499799 Ry
     estimated scf accuracy    <       0.00007807 Ry

     iteration #  9     ecut=   100.00 Ry     beta=0.30
     Davidson diagonalization with overlap
     ethr =  3.25E-07,  avg # of iterations =  1.0

     total cpu time spent up to now is      494.1 secs

     total energy              =    -139.41496446 Ry
     Harris-Foulkes estimate   =    -139.41498691 Ry
     estimated scf accuracy    <       0.00003871 Ry

     iteration # 10     ecut=   100.00 Ry     beta=0.30
     Davidson diagonalization with overlap
     ethr =  1.61E-07,  avg # of iterations =  2.7

     total cpu time spent up to now is      514.2 secs

     total energy              =    -139.41497726 Ry
     Harris-Foulkes estimate   =    -139.41497907 Ry
     estimated scf accuracy    <       0.00000626 Ry

     iteration # 11     ecut=   100.00 Ry     beta=0.30
     Davidson diagonalization with overlap
     ethr =  2.61E-08,  avg # of iterations =  2.0

     total cpu time spent up to now is      529.6 secs

     total energy              =    -139.41497724 Ry
     Harris-Foulkes estimate   =    -139.41497764 Ry
     estimated scf accuracy    <       0.00000150 Ry

     iteration # 12     ecut=   100.00 Ry     beta=0.30
     Davidson diagonalization with overlap
     ethr =  6.24E-09,  avg # of iterations =  2.0

     total cpu time spent up to now is      545.9 secs

     End of self-consistent calculation

          k = 0.0923 0.1599 0.0806 (  4531 PWs)   bands (ev):

   -24.8690  -8.0733  -7.2882  -6.0097  -5.0734  -1.9268   6.7481   8.3293
     9.1323  10.1079  11.4876  12.1036

          k = 0.0923 0.1599 0.2419 (  4541 PWs)   bands (ev):

   -24.8461  -8.7203  -6.9324  -5.9916  -4.4937  -2.2010   6.2604   7.9172
     9.2530  10.2918  11.2556  12.1456

          k = 0.0923 0.1599 0.4031 (  4548 PWs)   bands (ev):

   -24.8231  -9.1356  -6.7707  -5.9729  -3.7068  -2.7323   6.2045   6.9771
     9.7055  10.4150  11.1098  11.8351

          k = 0.0923 0.3731 0.0806 (  4545 PWs)   bands (ev):

   -24.6939  -8.8308  -7.1514  -6.2821  -4.2675  -2.5101   6.5856   6.8707
     9.1887  10.9973  11.2500  12.1280

          k = 0.0923 0.3731 0.2419 (  4549 PWs)   bands (ev):

   -24.6762  -8.5644  -7.6676  -6.2567  -4.2928  -2.1528   5.6252   6.3627
     9.0102  11.4111  12.0548  12.2098

          k = 0.0923 0.3731 0.4031 (  4546 PWs)   bands (ev):

   -24.6583  -8.2757  -8.0804  -6.2315  -4.2696  -2.1495   5.2816   6.0198
     9.0566  11.2538  12.1237  12.5232

          k = 0.0923 0.5863 0.0806 (  4557 PWs)   bands (ev):

   -24.5603  -9.4198  -6.7365  -6.3645  -4.3643  -2.5673   5.6294   6.8842
     9.2999  10.7759  11.6566  12.1842

          k = 0.0923 0.5863 0.2419 (  4553 PWs)   bands (ev):

   -24.5465  -9.1472  -6.8845  -6.4566  -4.7876  -2.3589   5.5117   6.0888
     9.0496  11.2332  12.0510  12.4817

          k = 0.0923 0.5863 0.4031 (  4556 PWs)   bands (ev):

   -24.5326  -8.8390  -7.0176  -6.4984  -5.2461  -2.2553   4.9053   6.2475
     8.8063  11.7197  12.2585  12.3511

          k = 0.0923-0.4797 0.0806 (  4549 PWs)   bands (ev):

   -24.6097  -9.2619  -6.7384  -6.4050  -3.9203  -3.1510   6.3490   7.2406
     9.2694  10.6211  11.3903  11.7341

          k = 0.0923-0.4797 0.2419 (  4548 PWs)   bands (ev):

   -24.5944  -9.0706  -6.9232  -6.4392  -4.1831  -3.0613   6.2435   6.4840
     9.4287  10.7567  11.6343  11.9148

          k = 0.0923-0.4797 0.4031 (  4557 PWs)   bands (ev):

   -24.5791  -8.7319  -7.3718  -6.3871  -4.6985  -2.4888   5.2928   6.2614
     9.0775  11.3393  12.0214  12.2723

          k = 0.0923-0.2665 0.0806 (  4535 PWs)   bands (ev):

   -24.7888  -8.4627  -7.2227  -6.1457  -4.5183  -2.4507   6.9383   7.8634
     9.3066  10.3939  11.0934  11.8134

          k = 0.0923-0.2665 0.2419 (  4532 PWs)   bands (ev):

   -24.7682  -8.6575  -7.3000  -6.1243  -4.0512  -2.6474   6.2941   7.3285
     9.5361  10.6178  11.0990  11.9836

          k = 0.0923-0.2665 0.4031 (  4555 PWs)   bands (ev):

   -24.7475  -8.8307  -7.3693  -6.0959  -3.7402  -2.6431   5.9253   6.4054
     9.7690  10.3174  11.5501  12.2916

          k = 0.0923-0.0533 0.0806 (  4547 PWs)   bands (ev):

   -24.9145  -7.9734  -7.0491  -5.9375  -5.5138  -1.6355   6.6298   8.7478
     8.9635   9.7871  11.8332  12.2969

          k = 0.0923-0.0533 0.2419 (  4538 PWs)   bands (ev):

   -24.8904  -8.8222  -6.4527  -5.9217  -4.9056  -2.0200   6.3834   8.4114
     9.1318   9.8778  11.4569  11.9968

          k = 0.0923-0.0533 0.4031 (  4540 PWs)   bands (ev):

   -24.8660  -9.3097  -6.2652  -5.9074  -3.8786  -2.8031   6.5447   7.4455
     9.6193  10.6530  10.7090  11.2600

          k = 0.2769 0.4797 0.0806 (  4559 PWs)   bands (ev):

   -24.5611  -9.0432  -7.5939  -6.3744  -3.3985  -2.9936   6.2270   6.4503
     8.3595  11.3259  11.4962  12.4334

          k = 0.2769 0.4797 0.2419 (  4556 PWs)   bands (ev):

   -24.5473  -8.8004  -7.5560  -6.5643  -3.9448  -2.8649   5.8816   6.1255
     8.8824  11.4667  11.5483  12.3925

          k = 0.2769 0.4797 0.4031 (  4549 PWs)   bands (ev):

   -24.5333  -8.4630  -7.6339  -6.6968  -4.3651  -2.9053   5.7292   5.8212
     9.2741  11.2330  11.7958  12.4087

          k = 0.2769 0.6929 0.0806 (  4559 PWs)   bands (ev):

   -24.5249  -8.9739  -7.9480  -6.2901  -3.2766  -2.9516   6.0609   6.2610
     8.0957  11.4743  11.6271  12.5848

          k = 0.2769 0.6929 0.2419 (  4568 PWs)   bands (ev):

   -24.5121  -8.7527  -7.8019  -6.4609  -3.8295  -3.0791   5.9001   6.1089
     8.6497  11.4506  11.7771  12.3454

          k = 0.2769 0.6929 0.4031 (  4556 PWs)   bands (ev):

   -24.4992  -8.4705  -7.6697  -6.6274  -4.3608  -3.2566   5.6846   6.0778
     9.2492  11.3525  11.7830  12.1253

          k = 0.2769-0.3731 0.0806 (  4544 PWs)   bands (ev):

   -24.6232  -9.0071  -7.2153  -6.4377  -3.8423  -2.7633   6.3684   6.7162
     8.8490  10.9954  11.4316  12.2733

          k = 0.2769-0.3731 0.2419 (  4551 PWs)   bands (ev):

   -24.6076  -8.7366  -7.4883  -6.5097  -4.1420  -2.4773   5.7704   6.1603
     9.0521  11.4049  11.7385  12.3235

          k = 0.2769-0.3731 0.4031 (  4549 PWs)   bands (ev):

   -24.5917  -8.3410  -7.8876  -6.5125  -4.3455  -2.4445   5.4479   5.8579
     9.1934  11.1543  12.0406  12.5621

          k = 0.2769-0.1599 0.0806 (  4543 PWs)   bands (ev):

   -24.7543  -8.5700  -7.2838  -6.1284  -4.5211  -2.3169   6.6877   7.1809
     9.1777  10.9574  11.2200  12.1136

          k = 0.2769-0.1599 0.2419 (  4539 PWs)   bands (ev):

   -24.7348  -8.4478  -7.7226  -6.1049  -4.3264  -2.0495   5.6777   6.6727
     8.9560  11.3135  11.9294  12.3172

          k = 0.2769-0.1599 0.4031 (  4560 PWs)   bands (ev):

   -24.7151  -8.5915  -7.7482  -6.0842  -4.1054  -2.1504   5.4225   6.2015
     9.0442  11.3264  11.9798  12.2815

          k = 0.4616 0.7995 0.0806 (  4568 PWs)   bands (ev):

   -24.5378  -9.2619  -7.3597  -6.3186  -3.7971  -2.7333   5.8085   6.5932
     8.6261  11.1192  11.6936  12.3826

          k = 0.4616 0.7995 0.2419 (  4565 PWs)   bands (ev):

   -24.5246  -9.0183  -7.2754  -6.4982  -4.3187  -2.7239   5.7778   6.0884
     8.9355  11.1329  11.9459  12.4263

          k = 0.4616 0.7995 0.4031 (  4544 PWs)   bands (ev):

   -24.5114  -8.7222  -7.1833  -6.6813  -4.8604  -2.7317   5.2793   6.2243
     9.0626  11.4931  12.0667  12.1518

          k = 0.4616-0.2665 0.0806 (  4549 PWs)   bands (ev):

   -24.5866  -9.3883  -6.5980  -6.3119  -4.5877  -2.4868   5.6578   6.9444
     9.5282  10.7789  11.6704  12.0081

          k = 0.4616-0.2665 0.2419 (  4544 PWs)   bands (ev):

   -24.5721  -9.0923  -7.0202  -6.2829  -4.8868  -2.1315   5.3355   6.0749
     8.9996  11.4092  12.2004  12.4737

          k = 0.4616-0.2665 0.4031 (  4565 PWs)   bands (ev):

   -24.5575  -8.7773  -7.3050  -6.2549  -5.2174  -2.0339   4.7817   6.1755
     8.7166  11.7479  12.3826  12.4877

          k =-0.0923-0.3731 0.0806 (  4545 PWs)   bands (ev):

   -24.6939  -8.9136  -6.9790  -6.3001  -3.9982  -3.0244   6.8615   7.4869
     9.2923  10.4699  11.2297  11.6104

          k =-0.0923-0.3731 0.2419 (  4549 PWs)   bands (ev):

   -24.6761  -8.8198  -7.2517  -6.2834  -3.7718  -3.1665   6.4438   6.7589
     9.6239  10.6470  11.4031  11.7348

          k =-0.0923-0.3731 0.4031 (  4546 PWs)   bands (ev):

   -24.6582  -8.5903  -7.6905  -6.2419  -4.1085  -2.5616   5.7129   6.0876
     9.3934  10.8211  11.9109  12.3317

          k =-0.0923-0.5863 0.0806 (  4557 PWs)   bands (ev):

   -24.5602  -9.4404  -6.6796  -6.3700  -4.2492  -2.8002   5.8206   7.0337
     9.3014  10.7122  11.4971  12.0549

          k =-0.0923-0.5863 0.2419 (  4553 PWs)   bands (ev):

   -24.5465  -9.2050  -6.6268  -6.5780  -4.6866  -2.7003   5.8219   6.2969
     9.1991  10.9663  11.8771  12.2434

          k =-0.0923-0.5863 0.4031 (  4556 PWs)   bands (ev):

   -24.5326  -8.8852  -6.8546  -6.5634  -5.2407  -2.3896   5.0015   6.3747
     8.8792  11.6454  12.0585  12.3219

          k =-0.0923 0.4797 0.0806 (  4549 PWs)   bands (ev):

   -24.6098  -9.2037  -6.8993  -6.3740  -4.2756  -2.5308   5.9254   6.8127
     9.2551  10.8736  11.6610  12.1130

          k =-0.0923 0.4797 0.2419 (  4548 PWs)   bands (ev):

   -24.5945  -8.8978  -7.3169  -6.3746  -4.5558  -2.1534   5.4199   6.0753
     8.9911  11.4292  12.0918  12.4907

          k =-0.0923 0.4797 0.4031 (  4557 PWs)   bands (ev):

   -24.5792  -8.5633  -7.6526  -6.3611  -4.7775  -2.1361   5.0067   6.0306
     8.8678  11.6143  12.1905  12.5665

          k =-0.0923 0.2665 0.0806 (  4535 PWs)   bands (ev):

   -24.7888  -8.3884  -7.3421  -6.1403  -4.5681  -2.2809   6.7666   7.6137
     9.1326  10.6571  11.1622  12.1461

          k =-0.0923 0.2665 0.2419 (  4532 PWs)   bands (ev):

   -24.7682  -8.5333  -7.4978  -6.1159  -4.2266  -2.2385   5.9610   7.0378
     9.0966  11.0403  11.6140  12.1640

          k =-0.0923 0.2665 0.4031 (  4555 PWs)   bands (ev):

   -24.7476  -8.7837  -7.4485  -6.0924  -3.8782  -2.3882   5.7117   6.3653
     9.3494  10.7985  11.8554  12.1717

          k =-0.0923 0.0533 0.0806 (  4547 PWs)   bands (ev):

   -24.9145  -7.9941  -7.0135  -5.9390  -5.5198  -1.6560   6.6666   8.6694
     9.1354   9.7365  11.9940  12.0237

          k =-0.0923 0.0533 0.2419 (  4538 PWs)   bands (ev):

   -24.8904  -8.8321  -6.4219  -5.9249  -4.9011  -2.0684   6.4302   8.4911
     9.4046   9.6326  11.2436  12.0409

          k =-0.0923 0.0533 0.4031 (  4540 PWs)   bands (ev):

   -24.8660  -9.3127  -6.2552  -5.9090  -3.8475  -2.8524   6.5535   7.4945
     9.9468  10.3456  10.4117  11.4829

          k =-0.2769-0.6929 0.0806 (  4559 PWs)   bands (ev):

   -24.5249  -8.9655  -7.9595  -6.2901  -3.3714  -2.8388   5.9597   6.3063
     8.1147  11.4266  11.6706  12.6325

          k =-0.2769-0.6929 0.2419 (  4568 PWs)   bands (ev):

   -24.5121  -8.7288  -7.8361  -6.4586  -3.8991  -2.9771   5.9356   5.9834
     8.6505  11.4652  11.8370  12.3637

          k =-0.2769-0.6929 0.4031 (  4556 PWs)   bands (ev):

   -24.4992  -8.4507  -7.6995  -6.6227  -4.3781  -3.2239   5.7159   6.0114
     9.2161  11.5240  11.6863  12.1197

          k =-0.2769 0.3731 0.0806 (  4544 PWs)   bands (ev):

   -24.6232  -9.0418  -7.1404  -6.4507  -3.5421  -3.1753   6.6036   6.8807
     8.7658  10.9775  11.3476  12.0289

          k =-0.2769 0.3731 0.2419 (  4551 PWs)   bands (ev):

   -24.6075  -8.8435  -7.2792  -6.5537  -3.8866  -2.9549   6.1575   6.3184
     9.2360  11.0413  11.6002  12.0762

          k =-0.2769 0.3731 0.4031 (  4549 PWs)   bands (ev):

   -24.5917  -8.4882  -7.6886  -6.5333  -4.2770  -2.6233   5.5685   5.9595
     9.3711  10.8753  12.0167  12.4612

          k =-0.2769 0.1599 0.0806 (  4543 PWs)   bands (ev):

   -24.7543  -8.6912  -7.0713  -6.1313  -4.3638  -2.7467   7.0189   7.8136
     9.6169  10.1865  11.1431  11.4446

          k =-0.2769 0.1599 0.2419 (  4539 PWs)   bands (ev):

   -24.7347  -8.7529  -7.2626  -6.1108  -3.8418  -3.0711   6.4700   7.2699
     9.9345  10.3603  10.8886  11.8410

          k =-0.2769 0.1599 0.4031 (  4560 PWs)   bands (ev):

   -24.7151  -8.7457  -7.5234  -6.0872  -3.8708  -2.6572   5.9548   6.2351
     9.4647  10.9238  11.3392  12.3466

          k =-0.4616 0.2665 0.0806 (  4549 PWs)   bands (ev):

   -24.5866  -9.4319  -6.4763  -6.3132  -4.3762  -2.9559   6.0224   7.3393
     9.8068  10.2648  11.2909  11.8531

          k =-0.4616 0.2665 0.2419 (  4544 PWs)   bands (ev):

   -24.5720  -9.2171  -6.7116  -6.2856  -4.6882  -2.8634   6.0493   6.4866
     9.3371  10.9475  11.6608  11.9890

          k =-0.4616 0.2665 0.4031 (  4565 PWs)   bands (ev):

   -24.5574  -8.8831  -7.0864  -6.2563  -5.2057  -2.3328   5.0368   6.4055
     8.8421  11.8103  12.0269  12.1559

!    total energy              =    -139.41497715 Ry
     Harris-Foulkes estimate   =    -139.41497737 Ry
     estimated scf accuracy    <       0.00000028 Ry

     The total energy is the sum of the following terms:

     one-electron contribution =     -11.05346872 Ry
     hartree contribution      =      23.03264832 Ry
     xc contribution           =     -26.61142842 Ry
     ewald contribution        =    -124.78272831 Ry

     convergence has been achieved in  12 iterations

     Forces acting on atoms (Ry/au):

     atom    1 type  3   force =    -0.00000000   -0.00000000   -0.00098752
     atom    2 type  2   force =    -0.00000000   -0.00000000    0.10982122
     atom    3 type  2   force =     0.00000000    0.00000000   -0.10915598
     atom    4 type  1   force =    -0.00000000   -0.00000000   -0.19665094
     atom    5 type  1   force =     0.00000000    0.00000000    0.19697322

     Total force =     0.318507     Total SCF correction =     0.000275


     entering subroutine stress ...

          total   stress  (Ry/bohr**3)                   (kbar)     P= 1342.48
   0.01057865   0.00000000   0.00000000       1556.17      0.00      0.00
   0.00000000   0.01057865  -0.00000000          0.00   1556.17     -0.00
   0.00000000  -0.00000000   0.00622076          0.00     -0.00    915.10


     number of scf cycles    =   2
     number of bfgs steps    =   1

     enthalpy old            =    -138.1992190620 Ry
     enthalpy new            =    -138.3865684784 Ry

     CASE: enthalpy_new < enthalpy_old

     new trust radius        =       0.1436086471 bohr
     new conv_thr            =       0.0000010000 Ry

     new unit-cell volume =    203.45608 a.u.^3 (    30.14908 Ang^3 )

CELL_PARAMETERS (alat=  6.37640000)
   0.949857140  -0.000000000  -0.000000000
  -0.474928570   0.822600413  -0.000000000
   0.000000000  -0.000000000   1.004377076

ATOMIC_POSITIONS (crystal)
Ca      -0.000000000  -0.000000000  -0.000186372
O        0.333333333   0.666666667   0.303798107
O        0.666666667   0.333333333   0.695296019
H        0.333333333   0.666666667   0.634120771
H        0.666666667   0.333333333   0.364971476



     Writing output data file CaOH2_ambient.save
     NEW-OLD atomic charge density approx. for the potential
     NEW k-points:
        k(    1) = (   0.0877325   0.1519571   0.0829702), wk =   0.0370370
        k(    2) = (   0.0877325   0.1519571   0.2489105), wk =   0.0370370
        k(    3) = (   0.0877325   0.1519571   0.4148508), wk =   0.0370370
        k(    4) = (   0.0877325   0.3545666   0.0829702), wk =   0.0370370
        k(    5) = (   0.0877325   0.3545666   0.2489105), wk =   0.0370370
        k(    6) = (   0.0877325   0.3545666   0.4148508), wk =   0.0370370
        k(    7) = (   0.0877325   0.5571762   0.0829702), wk =   0.0370370
        k(    8) = (   0.0877325   0.5571762   0.2489105), wk =   0.0370370
        k(    9) = (   0.0877325   0.5571762   0.4148508), wk =   0.0370370
        k(   10) = (   0.0877325  -0.4558714   0.0829702), wk =   0.0370370
        k(   11) = (   0.0877325  -0.4558714   0.2489105), wk =   0.0370370
        k(   12) = (   0.0877325  -0.4558714   0.4148508), wk =   0.0370370
        k(   13) = (   0.0877325  -0.2532619   0.0829702), wk =   0.0370370
        k(   14) = (   0.0877325  -0.2532619   0.2489105), wk =   0.0370370
        k(   15) = (   0.0877325  -0.2532619   0.4148508), wk =   0.0370370
        k(   16) = (   0.0877325  -0.0506524   0.0829702), wk =   0.0185185
        k(   17) = (   0.0877325  -0.0506524   0.2489105), wk =   0.0185185
        k(   18) = (   0.0877325  -0.0506524   0.4148508), wk =   0.0185185
        k(   19) = (   0.2631975   0.4558714   0.0829702), wk =   0.0370370
        k(   20) = (   0.2631975   0.4558714   0.2489105), wk =   0.0370370
        k(   21) = (   0.2631975   0.4558714   0.4148508), wk =   0.0370370
        k(   22) = (   0.2631975   0.6584809   0.0829702), wk =   0.0370370
        k(   23) = (   0.2631975   0.6584809   0.2489105), wk =   0.0370370
        k(   24) = (   0.2631975   0.6584809   0.4148508), wk =   0.0370370
        k(   25) = (   0.2631975  -0.3545666   0.0829702), wk =   0.0370370
        k(   26) = (   0.2631975  -0.3545666   0.2489105), wk =   0.0370370
        k(   27) = (   0.2631975  -0.3545666   0.4148508), wk =   0.0370370
        k(   28) = (   0.2631975  -0.1519571   0.0829702), wk =   0.0185185
        k(   29) = (   0.2631975  -0.1519571   0.2489105), wk =   0.0185185
        k(   30) = (   0.2631975  -0.1519571   0.4148508), wk =   0.0185185
        k(   31) = (   0.4386625   0.7597857   0.0829702), wk =   0.0370370
        k(   32) = (   0.4386625   0.7597857   0.2489105), wk =   0.0370370
        k(   33) = (   0.4386625   0.7597857   0.4148508), wk =   0.0370370
        k(   34) = (   0.4386625  -0.2532619   0.0829702), wk =   0.0185185
        k(   35) = (   0.4386625  -0.2532619   0.2489105), wk =   0.0185185
        k(   36) = (   0.4386625  -0.2532619   0.4148508), wk =   0.0185185
        k(   37) = (  -0.0877325  -0.3545666   0.0829702), wk =   0.0370370
        k(   38) = (  -0.0877325  -0.3545666   0.2489105), wk =   0.0370370
        k(   39) = (  -0.0877325  -0.3545666   0.4148508), wk =   0.0370370
        k(   40) = (  -0.0877325  -0.5571762   0.0829702), wk =   0.0370370
        k(   41) = (  -0.0877325  -0.5571762   0.2489105), wk =   0.0370370
        k(   42) = (  -0.0877325  -0.5571762   0.4148508), wk =   0.0370370
        k(   43) = (  -0.0877325   0.4558714   0.0829702), wk =   0.0370370
        k(   44) = (  -0.0877325   0.4558714   0.2489105), wk =   0.0370370
        k(   45) = (  -0.0877325   0.4558714   0.4148508), wk =   0.0370370
        k(   46) = (  -0.0877325   0.2532619   0.0829702), wk =   0.0370370
        k(   47) = (  -0.0877325   0.2532619   0.2489105), wk =   0.0370370
        k(   48) = (  -0.0877325   0.2532619   0.4148508), wk =   0.0370370
        k(   49) = (  -0.0877325   0.0506524   0.0829702), wk =   0.0185185
        k(   50) = (  -0.0877325   0.0506524   0.2489105), wk =   0.0185185
        k(   51) = (  -0.0877325   0.0506524   0.4148508), wk =   0.0185185
        k(   52) = (  -0.2631975  -0.6584809   0.0829702), wk =   0.0370370
        k(   53) = (  -0.2631975  -0.6584809   0.2489105), wk =   0.0370370
        k(   54) = (  -0.2631975  -0.6584809   0.4148508), wk =   0.0370370
        k(   55) = (  -0.2631975   0.3545666   0.0829702), wk =   0.0370370
        k(   56) = (  -0.2631975   0.3545666   0.2489105), wk =   0.0370370
        k(   57) = (  -0.2631975   0.3545666   0.4148508), wk =   0.0370370
        k(   58) = (  -0.2631975   0.1519571   0.0829702), wk =   0.0185185
        k(   59) = (  -0.2631975   0.1519571   0.2489105), wk =   0.0185185
        k(   60) = (  -0.2631975   0.1519571   0.4148508), wk =   0.0185185
        k(   61) = (  -0.4386625   0.2532619   0.0829702), wk =   0.0185185
        k(   62) = (  -0.4386625   0.2532619   0.2489105), wk =   0.0185185
        k(   63) = (  -0.4386625   0.2532619   0.4148508), wk =   0.0185185
     extrapolated charge   25.55179, renormalised to   24.00000

     total cpu time spent up to now is      643.7 secs

     per-process dynamical memory:    21.2 Mb

     Self-consistent Calculation

     iteration #  1     ecut=   100.00 Ry     beta=0.30
     Davidson diagonalization with overlap
     ethr =  1.00E-06,  avg # of iterations =  7.8

     total cpu time spent up to now is      687.8 secs

     total energy              =    -139.50810981 Ry
     Harris-Foulkes estimate   =    -138.79629961 Ry
     estimated scf accuracy    <       0.15583910 Ry

     iteration #  2     ecut=   100.00 Ry     beta=0.30
     Davidson diagonalization with overlap
     ethr =  6.49E-04,  avg # of iterations =  3.0

     total cpu time spent up to now is      712.8 secs

     total energy              =    -139.64957762 Ry
     Harris-Foulkes estimate   =    -139.65745138 Ry
     estimated scf accuracy    <       0.05738583 Ry

     iteration #  3     ecut=   100.00 Ry     beta=0.30
     Davidson diagonalization with overlap
     ethr =  2.39E-04,  avg # of iterations =  1.0

     total cpu time spent up to now is      727.2 secs

     total energy              =    -139.62805581 Ry
     Harris-Foulkes estimate   =    -139.65022039 Ry
     estimated scf accuracy    <       0.03589846 Ry

     iteration #  4     ecut=   100.00 Ry     beta=0.30
     Davidson diagonalization with overlap
     ethr =  1.50E-04,  avg # of iterations =  2.7

     total cpu time spent up to now is      746.9 secs

     total energy              =    -139.63954961 Ry
     Harris-Foulkes estimate   =    -139.64230126 Ry
     estimated scf accuracy    <       0.00982489 Ry

     iteration #  5     ecut=   100.00 Ry     beta=0.30
     Davidson diagonalization with overlap
     ethr =  4.09E-05,  avg # of iterations =  1.1

     total cpu time spent up to now is      761.4 secs

     total energy              =    -139.63852622 Ry
     Harris-Foulkes estimate   =    -139.64001780 Ry
     estimated scf accuracy    <       0.00283687 Ry

     iteration #  6     ecut=   100.00 Ry     beta=0.30
     Davidson diagonalization with overlap
     ethr =  1.18E-05,  avg # of iterations =  2.1

     total cpu time spent up to now is      780.3 secs

     total energy              =    -139.63929764 Ry
     Harris-Foulkes estimate   =    -139.63930112 Ry
     estimated scf accuracy    <       0.00010745 Ry

     iteration #  7     ecut=   100.00 Ry     beta=0.30
     Davidson diagonalization with overlap
     ethr =  4.48E-07,  avg # of iterations =  1.4

     total cpu time spent up to now is      795.1 secs

     total energy              =    -139.63926524 Ry
     Harris-Foulkes estimate   =    -139.63930184 Ry
     estimated scf accuracy    <       0.00009265 Ry

     iteration #  8     ecut=   100.00 Ry     beta=0.30
     Davidson diagonalization with overlap
     ethr =  3.86E-07,  avg # of iterations =  2.0

     total cpu time spent up to now is      813.0 secs

     total energy              =    -139.63927562 Ry
     Harris-Foulkes estimate   =    -139.63927738 Ry
     estimated scf accuracy    <       0.00000385 Ry

     iteration #  9     ecut=   100.00 Ry     beta=0.30
     Davidson diagonalization with overlap
     ethr =  1.61E-08,  avg # of iterations =  3.0

     total cpu time spent up to now is      833.1 secs

     End of self-consistent calculation

          k = 0.0877 0.1520 0.0830 (  4531 PWs)   bands (ev):

   -26.2266  -9.1000  -8.2153  -7.5190  -6.6945  -3.7759   5.6451   6.8013
     7.9763   8.5652  10.5656  11.1732

          k = 0.0877 0.1520 0.2489 (  4541 PWs)   bands (ev):

   -26.2030  -9.5935  -8.0463  -7.4975  -6.1578  -3.9500   4.7690   6.4833
     8.1350   8.9767  10.2333  11.1017

          k = 0.0877 0.1520 0.4149 (  4548 PWs)   bands (ev):

   -26.1791  -9.9537  -7.9400  -7.4752  -5.5557  -4.2686   4.2754   5.8706
     8.5648   9.1688  10.0474  10.7024

          k = 0.0877 0.3546 0.0830 (  4545 PWs)   bands (ev):

   -26.1288  -9.6879  -8.1515  -7.6860  -5.9393  -4.3132   5.5196   5.9654
     7.9487   9.4113  10.3162  11.2478

          k = 0.0877 0.3546 0.2489 (  4549 PWs)   bands (ev):

   -26.1091  -9.4381  -8.5847  -7.6663  -5.9768  -4.0490   4.4729   5.4751
     7.8709   9.6768  10.9821  11.2833

          k = 0.0877 0.3546 0.4149 (  4546 PWs)   bands (ev):

   -26.0892  -9.2447  -8.8521  -7.6373  -5.9865  -4.0373   4.0049   5.0098
     7.9607   9.6694  11.0475  11.3338

          k = 0.0877 0.5572 0.0830 (  4557 PWs)   bands (ev):

   -26.0555 -10.0914  -7.9878  -7.6885  -5.7793  -4.5357   5.0212   5.9480
     7.9264   9.3506  10.7436  11.2569

          k = 0.0877 0.5572 0.2489 (  4553 PWs)   bands (ev):

   -26.0388  -9.7874  -8.1072  -7.7965  -6.1714  -4.3585   4.6840   5.0732
     7.8585   9.6664  11.0806  11.3895

          k = 0.0877 0.5572 0.4149 (  4556 PWs)   bands (ev):

   -26.0219  -9.4247  -8.2587  -7.8085  -6.6295  -4.2635   4.0645   4.8865
     7.7221  10.1210  11.1661  11.2806

          k = 0.0877-0.4559 0.0830 (  4549 PWs)   bands (ev):

   -26.0825  -9.9954  -7.9325  -7.7324  -5.4459  -4.9654   5.4292   6.2304
     7.9385   9.2841  10.4334  10.9286

          k = 0.0877-0.4559 0.2489 (  4548 PWs)   bands (ev):

   -26.0646  -9.7859  -8.0619  -7.7943  -5.6810  -4.8911   5.0757   5.3689
     8.1505   9.5217  10.6465  10.8728

          k = 0.0877-0.4559 0.4149 (  4557 PWs)   bands (ev):

   -26.0467  -9.4263  -8.4404  -7.7400  -6.2342  -4.3949   4.2795   4.9051
     7.9605   9.8755  10.9543  11.1333

          k = 0.0877-0.2533 0.0830 (  4535 PWs)   bands (ev):

   -26.1816  -9.4294  -8.1554  -7.6060  -6.2086  -4.1952   5.7468   6.5426
     8.0751   8.9606  10.2067  10.9592

          k = 0.0877-0.2533 0.2489 (  4532 PWs)   bands (ev):

   -26.1597  -9.5595  -8.2788  -7.5828  -5.8365  -4.3044   4.8258   6.1169
     8.3152   9.1770  10.2382  10.9758

          k = 0.0877-0.2533 0.4149 (  4555 PWs)   bands (ev):

   -26.1377  -9.6998  -8.3395  -7.5521  -5.6230  -4.2644   4.2108   5.4267
     8.5434   9.0926  10.4130  11.1106

          k = 0.0877-0.0507 0.0830 (  4547 PWs)   bands (ev):

   -26.2524  -8.9289  -8.1054  -7.4727  -7.0769  -3.5448   5.5787   7.0358
     7.8833   8.2457  10.8583  11.3041

          k = 0.0877-0.0507 0.2489 (  4538 PWs)   bands (ev):

   -26.2277  -9.6602  -7.7370  -7.4530  -6.4323  -3.8035   4.8211   6.7579
     8.0797   8.6982  10.3644  10.9853

          k = 0.0877-0.0507 0.4149 (  4540 PWs)   bands (ev):

   -26.2028 -10.0980  -7.6273  -7.4344  -5.5639  -4.3407   4.3961   6.2194
     8.5839   9.3019   9.7780  10.2418

          k = 0.2632 0.4559 0.0830 (  4559 PWs)   bands (ev):

   -26.0558  -9.8042  -8.6104  -7.6872  -5.1612  -4.7740   5.3663   5.7085
     7.1672  10.1096  10.3165  11.5500

          k = 0.2632 0.4559 0.2489 (  4556 PWs)   bands (ev):

   -26.0390  -9.5429  -8.5435  -7.8809  -5.6065  -4.6917   4.8384   5.1657
     7.6403  10.0598  10.6536  11.3337

          k = 0.2632 0.4559 0.4149 (  4549 PWs)   bands (ev):

   -26.0221  -9.1623  -8.6215  -7.9914  -6.0048  -4.7195   4.4906   4.7153
     8.0353   9.9318  10.7966  11.2186

          k = 0.2632 0.6585 0.0830 (  4559 PWs)   bands (ev):

   -26.0361  -9.7267  -8.8978  -7.6408  -4.9788  -4.8247   5.3030   5.5655
     6.9263  10.2182  10.4736  11.6956

          k = 0.2632 0.6585 0.2489 (  4568 PWs)   bands (ev):

   -26.0201  -9.4818  -8.7347  -7.8255  -5.4550  -4.8998   4.9593   5.0601
     7.4433  10.2308  10.6674  11.3388

          k = 0.2632 0.6585 0.4149 (  4556 PWs)   bands (ev):

   -26.0040  -9.1609  -8.5806  -8.0023  -5.9401  -5.0342   4.5749   4.7702
     7.9938  10.2187  10.7108  10.9568

          k = 0.2632-0.3546 0.0830 (  4544 PWs)   bands (ev):

   -26.0899  -9.8019  -8.2827  -7.7404  -5.5600  -4.5516   5.4293   5.8611
     7.5997   9.7384  10.2940  11.3763

          k = 0.2632-0.3546 0.2489 (  4551 PWs)   bands (ev):

   -26.0717  -9.5248  -8.4830  -7.8327  -5.8212  -4.3465   4.6414   5.2932
     7.8321   9.8072  10.8712  11.2673

          k = 0.2632-0.3546 0.4149 (  4549 PWs)   bands (ev):

   -26.0534  -9.0946  -8.8641  -7.8233  -6.0324  -4.3177   4.2066   4.8306
     8.0212   9.7137  10.9796  11.3715

          k = 0.2632-0.1520 0.0830 (  4543 PWs)   bands (ev):

   -26.1623  -9.5061  -8.2100  -7.5965  -6.1820  -4.1263   5.5838   6.1328
     8.0022   9.2514  10.2908  11.2550

          k = 0.2632-0.1520 0.2489 (  4539 PWs)   bands (ev):

   -26.1412  -9.3952  -8.5915  -7.5701  -6.0277  -3.9208   4.4541   5.7070
     7.8586   9.6067  10.7859  11.3705

          k = 0.2632-0.1520 0.4149 (  4560 PWs)   bands (ev):

   -26.1200  -9.5024  -8.6163  -7.5457  -5.8667  -3.9759   3.9875   5.2148
     7.9858   9.6463  10.9786  11.0958

          k = 0.4387 0.7598 0.0830 (  4568 PWs)   bands (ev):

   -26.0432  -9.9587  -8.4501  -7.6561  -5.3556  -4.6707   5.1414   5.7815
     7.3345   9.8306  10.6092  11.5069

          k = 0.4387 0.7598 0.2489 (  4565 PWs)   bands (ev):

   -26.0269  -9.6868  -8.3563  -7.8454  -5.8101  -4.6459   4.9125   5.0230
     7.6756   9.8739  10.8650  11.3651

          k = 0.4387 0.7598 0.4149 (  4544 PWs)   bands (ev):

   -26.0105  -9.3447  -8.2500  -8.0319  -6.3277  -4.6354   4.3231   4.8575
     7.8823  10.1506  10.9411  11.0762

          k = 0.4387-0.2533 0.0830 (  4549 PWs)   bands (ev):

   -26.0700 -10.0758  -7.8145  -7.7174  -5.9757  -4.4440   5.0330   5.9641
     8.2374   9.1127  10.9621  10.9746

          k = 0.4387-0.2533 0.2489 (  4544 PWs)   bands (ev):

   -26.0526  -9.7494  -8.1992  -7.6859  -6.2803  -4.1615   4.5032   5.1168
     7.8718   9.6477  11.2935  11.3524

          k = 0.4387-0.2533 0.4149 (  4565 PWs)   bands (ev):

   -26.0352  -9.3728  -8.4824  -7.6551  -6.6187  -4.0759   3.9429   4.8768
     7.6682  10.0615  11.3226  11.3567

          k =-0.0877-0.3546 0.0830 (  4545 PWs)   bands (ev):

   -26.1288  -9.7563  -8.0195  -7.7007  -5.7281  -4.6768   5.6945   6.3667
     8.0331   9.2153  10.1548  10.8601

          k =-0.0877-0.3546 0.2489 (  4549 PWs)   bands (ev):

   -26.1091  -9.6494  -8.2555  -7.6875  -5.5856  -4.7529   4.9721   5.7354
     8.3256   9.3638  10.4650  10.7525

          k =-0.0877-0.3546 0.4149 (  4546 PWs)   bands (ev):

   -26.0892  -9.4497  -8.5900  -7.6449  -5.8496  -4.3365   4.2719   5.0511
     8.2385   9.4528  10.7517  11.2001

          k =-0.0877-0.5572 0.0830 (  4557 PWs)   bands (ev):

   -26.0555 -10.1113  -7.9550  -7.6830  -5.6343  -4.7483   5.1354   6.0761
     7.9133   9.3180  10.6476  11.1352

          k =-0.0877-0.5572 0.2489 (  4553 PWs)   bands (ev):

   -26.0388  -9.8483  -7.9134  -7.8786  -6.0275  -4.6485   5.0102   5.0790
     7.9683   9.5907  10.8794  11.1683

          k =-0.0877-0.5572 0.4149 (  4556 PWs)   bands (ev):

   -26.0219  -9.4834  -8.1246  -7.8455  -6.6065  -4.3715   4.1548   4.9313
     7.7828  10.1385  10.9792  11.2216

          k =-0.0877 0.4559 0.0830 (  4549 PWs)   bands (ev):

   -26.0825  -9.9420  -8.0419  -7.7220  -5.8230  -4.4307   5.1901   5.8824
     7.9417   9.3934  10.6480  11.2497

          k =-0.0877 0.4559 0.2489 (  4548 PWs)   bands (ev):

   -26.0647  -9.6147  -8.3937  -7.7424  -6.0969  -4.1419   4.4810   5.1831
     7.8291   9.7196  11.1542  11.4073

          k =-0.0877 0.4559 0.4149 (  4557 PWs)   bands (ev):

   -26.0467  -9.2100  -8.7420  -7.7213  -6.3295  -4.1199   4.0210   4.8473
     7.7838   9.9427  11.1880  11.3979

          k =-0.0877 0.2533 0.0830 (  4535 PWs)   bands (ev):

   -26.1816  -9.3780  -8.2408  -7.6014  -6.2519  -4.0738   5.6475   6.3730
     7.9532   9.1382  10.2063  11.2352

          k =-0.0877 0.2533 0.2489 (  4532 PWs)   bands (ev):

   -26.1597  -9.4644  -8.4271  -7.5763  -5.9692  -4.0217   4.6082   5.9537
     7.9753   9.4582  10.5255  11.2089

          k =-0.0877 0.2533 0.4149 (  4555 PWs)   bands (ev):

   -26.1377  -9.6621  -8.4002  -7.5495  -5.7119  -4.1002   4.0941   5.3882
     8.2332   9.3737  10.7019  11.0275

          k =-0.0877 0.0507 0.0830 (  4547 PWs)   bands (ev):

   -26.2524  -8.9470  -8.0738  -7.4739  -7.0826  -3.5594   5.6008   7.0472
     8.0340   8.0955  11.0232  11.0849

          k =-0.0877 0.0507 0.2489 (  4538 PWs)   bands (ev):

   -26.2277  -9.6693  -7.7147  -7.4554  -6.4236  -3.8395   4.8531   6.7967
     8.2632   8.5194  10.2922  10.9666

          k =-0.0877 0.0507 0.4149 (  4540 PWs)   bands (ev):

   -26.2028 -10.1007  -7.6206  -7.4356  -5.5425  -4.3736   4.4109   6.2337
     8.7996   9.1257   9.5762  10.3735

          k =-0.2632-0.6585 0.0830 (  4559 PWs)   bands (ev):

   -26.0361  -9.7189  -8.9076  -7.6411  -5.0821  -4.7111   5.2559   5.5718
     6.9413  10.1915  10.5033  11.7233

          k =-0.2632-0.6585 0.2489 (  4568 PWs)   bands (ev):

   -26.0201  -9.4575  -8.7672  -7.8235  -5.5242  -4.8099   4.9238   5.0400
     7.4402  10.2129  10.7231  11.3680

          k =-0.2632-0.6585 0.4149 (  4556 PWs)   bands (ev):

   -26.0040  -9.1360  -8.6174  -7.9948  -5.9584  -5.0050   4.5793   4.7449
     7.9750  10.2483  10.7285  10.9534

          k =-0.2632 0.3546 0.0830 (  4544 PWs)   bands (ev):

   -26.0898  -9.8322  -8.2292  -7.7450  -5.3635  -4.8159   5.5427   6.0180
     7.5513   9.7830  10.1535  11.2180

          k =-0.2632 0.3546 0.2489 (  4551 PWs)   bands (ev):

   -26.0717  -9.6227  -8.3048  -7.8696  -5.6071  -4.7018   4.8869   5.3907
     7.9598   9.7422  10.6375  11.0351

          k =-0.2632 0.3546 0.4149 (  4549 PWs)   bands (ev):

   -26.0534  -9.2674  -8.6498  -7.8398  -5.9697  -4.4540   4.3241   4.8502
     8.1453   9.5976  10.9110  11.2658

          k =-0.2632 0.1520 0.0830 (  4543 PWs)   bands (ev):

   -26.1623  -9.5980  -8.0533  -7.5987  -6.0471  -4.4349   5.7820   6.5497
     8.3416   8.7879  10.2561  10.6797

          k =-0.2632 0.1520 0.2489 (  4539 PWs)   bands (ev):

   -26.1412  -9.6256  -8.2506  -7.5746  -5.6746  -4.6161   4.9652   6.0495
     8.6249   8.9995  10.1410  10.8266

          k =-0.2632 0.1520 0.4149 (  4560 PWs)   bands (ev):

   -26.1200  -9.6189  -8.4485  -7.5480  -5.6921  -4.3252   4.2680   5.2820
     8.3639   9.3828  10.3732  11.1824

          k =-0.4387 0.2533 0.0830 (  4549 PWs)   bands (ev):

   -26.0699 -10.1173  -7.7288  -7.7185  -5.6986  -4.8683   5.2487   6.2738
     8.4222   8.8150  10.6708  10.8083

          k =-0.4387 0.2533 0.2489 (  4544 PWs)   bands (ev):

   -26.0526  -9.8788  -7.9552  -7.6881  -5.9835  -4.7784   5.1279   5.2091
     8.1593   9.4702  10.7936  10.8994

          k =-0.4387 0.2533 0.4149 (  4565 PWs)   bands (ev):

   -26.0352  -9.5077  -8.2675  -7.6562  -6.5690  -4.3093   4.1657   4.9478
     7.7859  10.1181  11.0066  11.1332

!    total energy              =    -139.63927646 Ry
     Harris-Foulkes estimate   =    -139.63927681 Ry
     estimated scf accuracy    <       0.00000090 Ry

     The total energy is the sum of the following terms:

     one-electron contribution =     -15.27487208 Ry
     hartree contribution      =      23.97395626 Ry
     xc contribution           =     -26.52328663 Ry
     ewald contribution        =    -121.81507401 Ry

     convergence has been achieved in   9 iterations

     Forces acting on atoms (Ry/au):

     atom    1 type  3   force =    -0.00000000   -0.00000000   -0.00041710
     atom    2 type  2   force =     0.00000000   -0.00000000    0.06245781
     atom    3 type  2   force =    -0.00000000    0.00000000   -0.06216762
     atom    4 type  1   force =    -0.00000000   -0.00000000   -0.18211550
     atom    5 type  1   force =     0.00000000    0.00000000    0.18224242

     Total force =     0.272295     Total SCF correction =     0.001311


     entering subroutine stress ...

          total   stress  (Ry/bohr**3)                   (kbar)     P=  962.67
   0.00798045   0.00000000   0.00000000       1173.96      0.00      0.00
   0.00000000   0.00798045   0.00000000          0.00   1173.96      0.00
   0.00000000   0.00000000   0.00367143          0.00      0.00    540.09


     number of scf cycles    =   3
     number of bfgs steps    =   2

     enthalpy old            =    -138.3865684784 Ry
     enthalpy new            =    -138.5328232356 Ry

     CASE: enthalpy_new < enthalpy_old

     new trust radius        =       0.2123493058 bohr
     new conv_thr            =       0.0000010000 Ry

     new unit-cell volume =    205.43930 a.u.^3 (    30.44296 Ang^3 )

CELL_PARAMETERS (alat=  6.37640000)
   0.992114041   0.000000000  -0.000000000
  -0.496057020   0.859195963  -0.000000000
   0.000000000   0.000000000   0.929614835

ATOMIC_POSITIONS (crystal)
Ca      -0.000000000  -0.000000000  -0.000286228
O        0.333333333   0.666666667   0.315067175
O        0.666666667   0.333333333   0.684087125
H        0.333333333   0.666666667   0.606577842
H        0.666666667   0.333333333   0.392554086



     Writing output data file CaOH2_ambient.save
     NEW-OLD atomic charge density approx. for the potential
     NEW k-points:
        k(    1) = (   0.0839957   0.1454849   0.0896429), wk =   0.0370370
        k(    2) = (   0.0839957   0.1454849   0.2689286), wk =   0.0370370
        k(    3) = (   0.0839957   0.1454849   0.4482143), wk =   0.0370370
        k(    4) = (   0.0839957   0.3394647   0.0896429), wk =   0.0370370
        k(    5) = (   0.0839957   0.3394647   0.2689286), wk =   0.0370370
        k(    6) = (   0.0839957   0.3394647   0.4482143), wk =   0.0370370
        k(    7) = (   0.0839957   0.5334445   0.0896429), wk =   0.0370370
        k(    8) = (   0.0839957   0.5334445   0.2689286), wk =   0.0370370
        k(    9) = (   0.0839957   0.5334445   0.4482143), wk =   0.0370370
        k(   10) = (   0.0839957  -0.4364546   0.0896429), wk =   0.0370370
        k(   11) = (   0.0839957  -0.4364546   0.2689286), wk =   0.0370370
        k(   12) = (   0.0839957  -0.4364546   0.4482143), wk =   0.0370370
        k(   13) = (   0.0839957  -0.2424748   0.0896429), wk =   0.0370370
        k(   14) = (   0.0839957  -0.2424748   0.2689286), wk =   0.0370370
        k(   15) = (   0.0839957  -0.2424748   0.4482143), wk =   0.0370370
        k(   16) = (   0.0839957  -0.0484950   0.0896429), wk =   0.0185185
        k(   17) = (   0.0839957  -0.0484950   0.2689286), wk =   0.0185185
        k(   18) = (   0.0839957  -0.0484950   0.4482143), wk =   0.0185185
        k(   19) = (   0.2519872   0.4364546   0.0896429), wk =   0.0370370
        k(   20) = (   0.2519872   0.4364546   0.2689286), wk =   0.0370370
        k(   21) = (   0.2519872   0.4364546   0.4482143), wk =   0.0370370
        k(   22) = (   0.2519872   0.6304344   0.0896429), wk =   0.0370370
        k(   23) = (   0.2519872   0.6304344   0.2689286), wk =   0.0370370
        k(   24) = (   0.2519872   0.6304344   0.4482143), wk =   0.0370370
        k(   25) = (   0.2519872  -0.3394647   0.0896429), wk =   0.0370370
        k(   26) = (   0.2519872  -0.3394647   0.2689286), wk =   0.0370370
        k(   27) = (   0.2519872  -0.3394647   0.4482143), wk =   0.0370370
        k(   28) = (   0.2519872  -0.1454849   0.0896429), wk =   0.0185185
        k(   29) = (   0.2519872  -0.1454849   0.2689286), wk =   0.0185185
        k(   30) = (   0.2519872  -0.1454849   0.4482143), wk =   0.0185185
        k(   31) = (   0.4199786   0.7274243   0.0896429), wk =   0.0370370
        k(   32) = (   0.4199786   0.7274243   0.2689286), wk =   0.0370370
        k(   33) = (   0.4199786   0.7274243   0.4482143), wk =   0.0370370
        k(   34) = (   0.4199786  -0.2424748   0.0896429), wk =   0.0185185
        k(   35) = (   0.4199786  -0.2424748   0.2689286), wk =   0.0185185
        k(   36) = (   0.4199786  -0.2424748   0.4482143), wk =   0.0185185
        k(   37) = (  -0.0839957  -0.3394647   0.0896429), wk =   0.0370370
        k(   38) = (  -0.0839957  -0.3394647   0.2689286), wk =   0.0370370
        k(   39) = (  -0.0839957  -0.3394647   0.4482143), wk =   0.0370370
        k(   40) = (  -0.0839957  -0.5334445   0.0896429), wk =   0.0370370
        k(   41) = (  -0.0839957  -0.5334445   0.2689286), wk =   0.0370370
        k(   42) = (  -0.0839957  -0.5334445   0.4482143), wk =   0.0370370
        k(   43) = (  -0.0839957   0.4364546   0.0896429), wk =   0.0370370
        k(   44) = (  -0.0839957   0.4364546   0.2689286), wk =   0.0370370
        k(   45) = (  -0.0839957   0.4364546   0.4482143), wk =   0.0370370
        k(   46) = (  -0.0839957   0.2424748   0.0896429), wk =   0.0370370
        k(   47) = (  -0.0839957   0.2424748   0.2689286), wk =   0.0370370
        k(   48) = (  -0.0839957   0.2424748   0.4482143), wk =   0.0370370
        k(   49) = (  -0.0839957   0.0484950   0.0896429), wk =   0.0185185
        k(   50) = (  -0.0839957   0.0484950   0.2689286), wk =   0.0185185
        k(   51) = (  -0.0839957   0.0484950   0.4482143), wk =   0.0185185
        k(   52) = (  -0.2519872  -0.6304344   0.0896429), wk =   0.0370370
        k(   53) = (  -0.2519872  -0.6304344   0.2689286), wk =   0.0370370
        k(   54) = (  -0.2519872  -0.6304344   0.4482143), wk =   0.0370370
        k(   55) = (  -0.2519872   0.3394647   0.0896429), wk =   0.0370370
        k(   56) = (  -0.2519872   0.3394647   0.2689286), wk =   0.0370370
        k(   57) = (  -0.2519872   0.3394647   0.4482143), wk =   0.0370370
        k(   58) = (  -0.2519872   0.1454849   0.0896429), wk =   0.0185185
        k(   59) = (  -0.2519872   0.1454849   0.2689286), wk =   0.0185185
        k(   60) = (  -0.2519872   0.1454849   0.4482143), wk =   0.0185185
        k(   61) = (  -0.4199786   0.2424748   0.0896429), wk =   0.0185185
        k(   62) = (  -0.4199786   0.2424748   0.2689286), wk =   0.0185185
        k(   63) = (  -0.4199786   0.2424748   0.4482143), wk =   0.0185185
     extrapolated charge   24.21238, renormalised to   24.00000

     total cpu time spent up to now is      929.8 secs

     per-process dynamical memory:    21.2 Mb

     Self-consistent Calculation

     iteration #  1     ecut=   100.00 Ry     beta=0.30
     Davidson diagonalization with overlap
     ethr =  1.00E-06,  avg # of iterations =  6.6

     total cpu time spent up to now is      973.4 secs

     total energy              =    -139.73284316 Ry
     Harris-Foulkes estimate   =    -139.61357950 Ry
     estimated scf accuracy    <       0.03399066 Ry

     iteration #  2     ecut=   100.00 Ry     beta=0.30
     Davidson diagonalization with overlap
     ethr =  1.42E-04,  avg # of iterations =  1.0

     total cpu time spent up to now is      987.9 secs

     total energy              =    -139.72432386 Ry
     Harris-Foulkes estimate   =    -139.73420964 Ry
     estimated scf accuracy    <       0.02599178 Ry

     iteration #  3     ecut=   100.00 Ry     beta=0.30
     Davidson diagonalization with overlap
     ethr =  1.08E-04,  avg # of iterations =  2.0

     total cpu time spent up to now is     1004.1 secs

     total energy              =    -139.72332300 Ry
     Harris-Foulkes estimate   =    -139.72603028 Ry
     estimated scf accuracy    <       0.00469349 Ry

     iteration #  4     ecut=   100.00 Ry     beta=0.30
     Davidson diagonalization with overlap
     ethr =  1.96E-05,  avg # of iterations =  2.0

     total cpu time spent up to now is     1023.2 secs

     total energy              =    -139.72406305 Ry
     Harris-Foulkes estimate   =    -139.72470605 Ry
     estimated scf accuracy    <       0.00160765 Ry

     iteration #  5     ecut=   100.00 Ry     beta=0.30
     Davidson diagonalization with overlap
     ethr =  6.70E-06,  avg # of iterations =  2.0

     total cpu time spent up to now is     1040.9 secs

     total energy              =    -139.72417188 Ry
     Harris-Foulkes estimate   =    -139.72423717 Ry
     estimated scf accuracy    <       0.00014636 Ry

     iteration #  6     ecut=   100.00 Ry     beta=0.30
     Davidson diagonalization with overlap
     ethr =  6.10E-07,  avg # of iterations =  3.0

     total cpu time spent up to now is     1062.1 secs

     total energy              =    -139.72420163 Ry
     Harris-Foulkes estimate   =    -139.72425834 Ry
     estimated scf accuracy    <       0.00022849 Ry

     iteration #  7     ecut=   100.00 Ry     beta=0.30
     Davidson diagonalization with overlap
     ethr =  6.10E-07,  avg # of iterations =  2.0

     total cpu time spent up to now is     1077.9 secs

     total energy              =    -139.72417518 Ry
     Harris-Foulkes estimate   =    -139.72421027 Ry
     estimated scf accuracy    <       0.00007843 Ry

     iteration #  8     ecut=   100.00 Ry     beta=0.30
     Davidson diagonalization with overlap
     ethr =  3.27E-07,  avg # of iterations =  2.0

     total cpu time spent up to now is     1095.9 secs

     total energy              =    -139.72418804 Ry
     Harris-Foulkes estimate   =    -139.72418753 Ry
     estimated scf accuracy    <       0.00000190 Ry

     iteration #  9     ecut=   100.00 Ry     beta=0.30
     Davidson diagonalization with overlap
     ethr =  7.91E-09,  avg # of iterations =  2.0

     total cpu time spent up to now is     1113.4 secs

     total energy              =    -139.72418676 Ry
     Harris-Foulkes estimate   =    -139.72418821 Ry
     estimated scf accuracy    <       0.00000304 Ry

     iteration # 10     ecut=   100.00 Ry     beta=0.30
     Davidson diagonalization with overlap
     ethr =  7.91E-09,  avg # of iterations =  2.0

     total cpu time spent up to now is     1132.1 secs

     End of self-consistent calculation

          k = 0.0840 0.1455 0.0896 (  4531 PWs)   bands (ev):

   -26.6965  -9.9001  -8.3945  -8.0372  -7.5095  -5.3903   5.1155   6.1317
     7.4378   7.8433  10.5585  11.1640

          k = 0.0840 0.1455 0.2689 (  4541 PWs)   bands (ev):

   -26.6527 -10.2400  -8.3862  -7.9974  -7.1021  -5.4209   3.7714   5.9842
     7.6526   8.3287  10.1193  10.9995

[...]
        k(   60) = (  -0.2347502   0.1355331   0.5193125), wk =   0.0185185
        k(   61) = (  -0.3912504   0.2258885   0.1038625), wk =   0.0185185
        k(   62) = (  -0.3912504   0.2258885   0.3115875), wk =   0.0185185
        k(   63) = (  -0.3912504   0.2258885   0.5193125), wk =   0.0185185

     Dense  grid:    19847 G-vectors     FFT dimensions: (  40,  40,  30)

     Largest allocated arrays     est. size (Mb)     dimensions
        Kohn-Sham Wavefunctions         0.64 Mb     (   3472,   12)
        NL pseudopotentials             0.48 Mb     (   3472,    9)
        Each V/rho on FFT grid          0.73 Mb     (  48000)
        Each G-vector array             0.15 Mb     (  19847)
        G-vector shells                 0.01 Mb     (    947)
     Largest temporary arrays     est. size (Mb)     dimensions
        Auxiliary wavefunctions         2.54 Mb     (   3472,   48)
        Each subspace H/S matrix        0.04 Mb     (  48,  48)
        Each <psi_i|beta_j> matrix      0.00 Mb     (      9,   12)
        Arrays for rho mixing          11.72 Mb     (  48000,  16)

     Initial potential from superposition of free atoms

     starting charge   21.99998, renormalised to   24.00000
     Starting wfc are   14 randomized atomic wfcs

     Writing output data file CaOH2_ambient.save

     total cpu time spent up to now is     4396.2 secs

     per-process dynamical memory:    16.5 Mb

     Self-consistent Calculation

     iteration #  1     ecut=   100.00 Ry     beta=0.30
     Davidson diagonalization with overlap
     ethr =  1.00E-06,  avg # of iterations =  5.9

     total cpu time spent up to now is     4421.6 secs

     total energy              =    -139.90787476 Ry
     Harris-Foulkes estimate   =    -139.98662556 Ry
     estimated scf accuracy    <       0.45307690 Ry

     iteration #  2     ecut=   100.00 Ry     beta=0.30
     Davidson diagonalization with overlap
     ethr =  1.89E-03,  avg # of iterations =  1.0

     total cpu time spent up to now is     4431.1 secs

     total energy              =    -139.72011714 Ry
     Harris-Foulkes estimate   =    -139.91124259 Ry
     estimated scf accuracy    <       0.29377995 Ry

     iteration #  3     ecut=   100.00 Ry     beta=0.30
     Davidson diagonalization with overlap
     ethr =  1.22E-03,  avg # of iterations =  2.0

     total cpu time spent up to now is     4443.4 secs

     total energy              =    -139.76869146 Ry
     Harris-Foulkes estimate   =    -139.77212673 Ry
     estimated scf accuracy    <       0.01550172 Ry

     iteration #  4     ecut=   100.00 Ry     beta=0.30
     Davidson diagonalization with overlap
     ethr =  6.46E-05,  avg # of iterations =  1.5

     total cpu time spent up to now is     4451.6 secs

     total energy              =    -139.76761117 Ry
     Harris-Foulkes estimate   =    -139.76933695 Ry
     estimated scf accuracy    <       0.00349503 Ry

     iteration #  5     ecut=   100.00 Ry     beta=0.30
     Davidson diagonalization with overlap
     ethr =  1.46E-05,  avg # of iterations =  2.0

     total cpu time spent up to now is     4461.5 secs

     total energy              =    -139.76805179 Ry
     Harris-Foulkes estimate   =    -139.76808291 Ry
     estimated scf accuracy    <       0.00028503 Ry

     iteration #  6     ecut=   100.00 Ry     beta=0.30
     Davidson diagonalization with overlap
     ethr =  1.19E-06,  avg # of iterations =  2.0

     total cpu time spent up to now is     4470.2 secs

     total energy              =    -139.76806571 Ry
     Harris-Foulkes estimate   =    -139.76807123 Ry
     estimated scf accuracy    <       0.00008546 Ry

     iteration #  7     ecut=   100.00 Ry     beta=0.30
     Davidson diagonalization with overlap
     ethr =  3.56E-07,  avg # of iterations =  2.3

     total cpu time spent up to now is     4480.8 secs

     total energy              =    -139.76809090 Ry
     Harris-Foulkes estimate   =    -139.76809335 Ry
     estimated scf accuracy    <       0.00002714 Ry

     iteration #  8     ecut=   100.00 Ry     beta=0.30
     Davidson diagonalization with overlap
     ethr =  1.13E-07,  avg # of iterations =  1.0

     total cpu time spent up to now is     4488.6 secs

     total energy              =    -139.76808199 Ry
     Harris-Foulkes estimate   =    -139.76809130 Ry
     estimated scf accuracy    <       0.00001972 Ry

     iteration #  9     ecut=   100.00 Ry     beta=0.30
     Davidson diagonalization with overlap
     ethr =  8.22E-08,  avg # of iterations =  2.0

     total cpu time spent up to now is     4499.1 secs

     total energy              =    -139.76808572 Ry
     Harris-Foulkes estimate   =    -139.76808570 Ry
     estimated scf accuracy    <       0.00000007 Ry

     iteration # 10     ecut=   100.00 Ry     beta=0.30
     Davidson diagonalization with overlap
     ethr =  2.73E-10,  avg # of iterations =  3.0

     total cpu time spent up to now is     4510.4 secs

     total energy              =    -139.76808576 Ry
     Harris-Foulkes estimate   =    -139.76808575 Ry
     estimated scf accuracy    <       0.00000004 Ry

     iteration # 11     ecut=   100.00 Ry     beta=0.30
     Davidson diagonalization with overlap
     ethr =  1.68E-10,  avg # of iterations =  2.0

     total cpu time spent up to now is     4520.6 secs

     End of self-consistent calculation

          k = 0.0783 0.1355 0.1039 (  3463 PWs)   bands (ev):

   -27.2719  -9.6275  -8.5994  -8.3931  -7.5998  -5.7114   6.5124   7.1871
     7.5700   8.0695  10.7683  11.2822

          k = 0.0783 0.1355 0.3116 (  3442 PWs)   bands (ev):

   -27.1244  -9.8155  -8.7893  -8.4691  -7.1458  -5.4942   4.2583   6.3809
     7.6654   8.2838  10.3091  11.1144

          k = 0.0783 0.1355 0.5193 (  3439 PWs)   bands (ev):

   -26.9706 -10.4377  -8.5627  -8.3415  -6.6511  -5.3575   2.6768   4.8110
     8.4508   9.2077   9.5644  10.4828

          k = 0.0783 0.3162 0.1039 (  3449 PWs)   bands (ev):

   -27.2383 -10.2126  -8.7555  -8.3213  -6.8699  -5.9554   6.6281   7.3952
     7.6832   8.4891  10.2577  11.4118

          k = 0.0783 0.3162 0.3116 (  3441 PWs)   bands (ev):

   -27.0948  -9.8296  -9.1620  -8.5702  -6.7870  -5.5850   4.3735   5.8409
     7.6319   8.9571  10.5763  11.3084

          k = 0.0783 0.3162 0.5193 (  3455 PWs)   bands (ev):

   -26.9454 -10.1359  -9.0372  -8.4205  -6.7609  -5.2813   2.8827   4.1955
     8.1373   9.2868  10.5550  10.8518

          k = 0.0783 0.4970 0.1039 (  3437 PWs)   bands (ev):

   -27.2135 -10.4977  -8.8684  -8.2478  -6.8515  -5.7406   6.8355   7.3995
     7.5286   8.5733  10.5766  11.3900

          k = 0.0783 0.4970 0.3116 (  3458 PWs)   bands (ev):

   -27.0731  -9.9951  -9.1209  -8.6620  -6.7011  -5.6489   4.7770   5.4146
     7.7630   9.0291  10.8263  11.2227

          k = 0.0783 0.4970 0.5193 (  3464 PWs)   bands (ev):

   -26.9268  -9.8826  -9.3168  -8.4872  -6.8080  -5.4243   3.2782   3.7746
     8.0746   9.6557  10.7138  10.8261

          k = 0.0783-0.4066 0.1039 (  3441 PWs)   bands (ev):

   -27.2226 -10.4202  -8.8161  -8.2475  -6.7069  -6.0117   6.9979   7.3676
     7.6821   8.5414  10.2814  11.1802

          k = 0.0783-0.4066 0.3116 (  3452 PWs)   bands (ev):

   -27.0810 -10.0139  -9.0345  -8.6393  -6.3520  -6.0789   4.8902   5.4915
     7.9883   9.0732  10.4383  10.8073

          k = 0.0783-0.4066 0.5193 (  3457 PWs)   bands (ev):

   -26.9336 -10.0185  -9.1779  -8.4628  -6.6608  -5.5325   3.2999   3.8268
     8.3294   9.4671  10.4579  10.6729

          k = 0.0783-0.2259 0.1039 (  3451 PWs)   bands (ev):

   -27.2564  -9.9644  -8.6656  -8.3307  -7.1356  -5.9452   6.6466   7.3510
     7.8872   8.0481  10.4339  11.1649

          k = 0.0783-0.2259 0.3116 (  3441 PWs)   bands (ev):

   -27.1107  -9.8561  -8.9529  -8.5185  -6.8013  -5.7238   4.3980   6.1181
     7.8840   8.5627  10.2345  11.0144

          k = 0.0783-0.2259 0.5193 (  3450 PWs)   bands (ev):

   -26.9589 -10.3153  -8.7875  -8.3778  -6.6165  -5.4002   2.8115   4.4881
     8.6097   8.9662   9.8654  10.7263

          k = 0.0783-0.0452 0.1039 (  3467 PWs)   bands (ev):

   -27.2809  -9.3274  -8.5645  -8.4589  -7.9383  -5.5707   6.4629   7.0813
     7.3017   8.1346  11.0012  11.3465

          k = 0.0783-0.0452 0.3116 (  3453 PWs)   bands (ev):

   -27.1323  -9.8144  -8.6022  -8.4450  -7.3916  -5.3852   4.2163   6.5596
     7.5744   8.0260  10.4599  11.0332

          k = 0.0783-0.0452 0.5193 (  3430 PWs)   bands (ev):

   -26.9773 -10.5065  -8.4099  -8.3230  -6.6736  -5.3649   2.6299   5.0212
     8.4632   9.1273   9.5726  10.2115

          k = 0.2348 0.4066 0.1039 (  3440 PWs)   bands (ev):

   -27.2136 -10.2841  -9.3374  -8.2371  -6.2298  -6.0864   6.6891   7.1588
     7.4731   9.3153   9.9900  11.7074

          k = 0.2348 0.4066 0.3116 (  3447 PWs)   bands (ev):

   -27.0731  -9.8425  -9.1306  -8.9600  -6.3206  -5.8742   4.8474   5.4326
     7.5312   9.4711  10.4181  11.2457

          k = 0.2348 0.4066 0.5193 (  3453 PWs)   bands (ev):

   -26.9268  -9.8957  -9.1726  -8.7119  -6.5199  -5.6552   3.3562   3.7903
     8.4277   9.4561  10.4385  10.7273

          k = 0.2348 0.5873 0.1039 (  3445 PWs)   bands (ev):

   -27.2069 -10.2152  -9.5767  -8.2248  -6.2028  -5.9524   6.5939   7.1576
     7.3675   9.5126  10.0096  11.8573

          k = 0.2348 0.5873 0.3116 (  3457 PWs)   bands (ev):

   -27.0673  -9.7728  -9.2310  -9.0348  -6.1938  -5.9363   5.0692   5.2499
     7.3906   9.7202  10.2704  11.3364

          k = 0.2348 0.5873 0.5193 (  3452 PWs)   bands (ev):

   -26.9218  -9.8193  -9.1685  -8.8428  -6.3765  -5.8389   3.5669   3.6343
     8.4318   9.7569  10.3424  10.5231

          k = 0.2348-0.3162 0.1039 (  3445 PWs)   bands (ev):

   -27.2251 -10.2935  -9.0270  -8.2667  -6.5356  -6.0358   6.6901   7.2987
     7.5822   8.8969  10.1010  11.5248

          k = 0.2348-0.3162 0.3116 (  3454 PWs)   bands (ev):

   -27.0832  -9.8622  -9.1476  -8.7461  -6.5640  -5.7215   4.5835   5.6414
     7.6487   9.1510  10.6023  11.2013

          k = 0.2348-0.3162 0.5193 (  3458 PWs)   bands (ev):

   -26.9354 -10.0113  -9.1333  -8.5480  -6.6728  -5.4343   3.0988   3.9846
     8.3022   9.2860  10.5440  10.8692

          k = 0.2348-0.1355 0.1039 (  3451 PWs)   bands (ev):

   -27.2498 -10.0689  -8.6271  -8.3779  -7.0908  -5.8957   6.5635   7.3393
     7.7949   8.2453  10.3452  11.4051

          k = 0.2348-0.1355 0.3116 (  3439 PWs)   bands (ev):

   -27.1049  -9.7950  -9.1195  -8.4985  -6.9107  -5.5240   4.2731   6.0098
     7.5658   8.8596  10.4329  11.3705

          k = 0.2348-0.1355 0.5193 (  3457 PWs)   bands (ev):

   -26.9539 -10.2415  -8.9067  -8.3678  -6.7607  -5.2413   2.7656   4.3846
     8.1026   9.2995  10.4082  10.7364

          k = 0.3913 0.6777 0.1039 (  3444 PWs)   bands (ev):

   -27.2094 -10.3919  -9.2348  -8.2296  -6.5216  -5.8143   6.7594   7.2111
     7.4137   9.0832  10.2836  11.6626

          k = 0.3913 0.6777 0.3116 (  3444 PWs)   bands (ev):

   -27.0693  -9.9167  -9.1037  -8.9102  -6.4356  -5.7941   4.9828   5.2892
     7.5772   9.3729  10.5204  11.2813

          k = 0.3913 0.6777 0.5193 (  3462 PWs)   bands (ev):

   -26.9236  -9.8465  -9.2614  -8.6620  -6.5990  -5.6296   3.4749   3.6639
     8.2820   9.6964  10.5312  10.6370

          k = 0.3913-0.2259 0.1039 (  3438 PWs)   bands (ev):

   -27.2184 -10.4930  -8.6893  -8.2826  -6.9878  -5.7443   6.8053   7.4370
     7.7041   8.3127  10.7030  11.2489

          k = 0.3913-0.2259 0.3116 (  3461 PWs)   bands (ev):

   -27.0774  -9.9821  -9.1542  -8.5530  -6.8271  -5.5641   4.6057   5.5258
     7.7799   8.9105  10.9762  11.2293

          k = 0.3913-0.2259 0.5193 (  3472 PWs)   bands (ev):

   -26.9305  -9.9252  -9.3043  -8.4131  -6.8858  -5.3151   3.1267   3.8783
     7.9810   9.5849  10.8254  10.9081

          k =-0.0783-0.3162 0.1039 (  3449 PWs)   bands (ev):

   -27.2383 -10.2376  -8.7437  -8.2818  -6.7467  -6.1326   6.8279   7.4385
     7.8025   8.3835  10.1926  11.1253

          k =-0.0783-0.3162 0.3116 (  3441 PWs)   bands (ev):

   -27.0948  -9.9386  -9.0205  -8.5808  -6.4499  -6.0155   4.6281   5.8132
     8.0212   8.8563  10.3071  10.8144

          k =-0.0783-0.3162 0.5193 (  3455 PWs)   bands (ev):

   -26.9453 -10.1647  -9.0071  -8.4220  -6.6118  -5.4794   3.0364   4.1417
     8.5520   9.0790  10.1892  10.7765

          k =-0.0783-0.4970 0.1039 (  3437 PWs)   bands (ev):

   -27.2135 -10.5062  -8.8630  -8.2348  -6.8131  -5.8019   6.9892   7.3319
     7.5779   8.5656  10.5004  11.2983

          k =-0.0783-0.4970 0.3116 (  3458 PWs)   bands (ev):

   -27.0731 -10.0369  -9.0602  -8.6707  -6.5682  -5.8243   5.0178   5.2790
     7.8729   9.0864  10.6285  11.0306

          k =-0.0783-0.4970 0.5193 (  3464 PWs)   bands (ev):

   -26.9268  -9.9106  -9.2869  -8.4878  -6.7450  -5.5099   3.4570   3.6397
     8.1628   9.7227  10.5672  10.7061

          k =-0.0783 0.4066 0.1039 (  3441 PWs)   bands (ev):

   -27.2226 -10.3985  -8.8286  -8.2807  -6.8260  -5.8388   6.7184   7.4572
     7.5290   8.5846  10.4376  11.4191

          k =-0.0783 0.4066 0.3116 (  3452 PWs)   bands (ev):

   -27.0811  -9.9083  -9.1794  -8.6237  -6.7524  -5.5798   4.5335   5.6059
     7.6833   9.0022  10.8334  11.2998

          k =-0.0783 0.4066 0.5193 (  3457 PWs)   bands (ev):

   -26.9336  -9.9718  -9.2278  -8.4614  -6.8115  -5.3293   3.0677   3.9557
     8.0680   9.4640  10.7365  10.9144

          k =-0.0783 0.2259 0.1039 (  3451 PWs)   bands (ev):

   -27.2564  -9.9478  -8.6710  -8.3596  -7.1616  -5.8886   6.5574   7.2773
     7.8877   8.1151  10.3761  11.3671

          k =-0.0783 0.2259 0.3116 (  3441 PWs)   bands (ev):

   -27.1107  -9.8065  -9.0171  -8.5143  -6.9066  -5.5741   4.2941   6.1164
     7.6193   8.7416  10.3075  11.2461

          k =-0.0783 0.2259 0.5193 (  3450 PWs)   bands (ev):

   -26.9589 -10.3059  -8.7962  -8.3768  -6.6917  -5.3029   2.7520   4.4993
     8.2714   9.1939  10.1145  10.6935

          k =-0.0783 0.0452 0.1039 (  3467 PWs)   bands (ev):

   -27.2809  -9.3363  -8.5654  -8.4366  -7.9471  -5.5764   6.4822   7.1722
     7.1962   8.1413  11.1458  11.1812

          k =-0.0783 0.0452 0.3116 (  3453 PWs)   bands (ev):

   -27.1323  -9.8205  -8.5923  -8.4469  -7.3819  -5.4022   4.2313   6.5578
     7.7330   7.8755  10.4727  10.9820

          k =-0.0783 0.0452 0.5193 (  3430 PWs)   bands (ev):

   -26.9773 -10.5075  -8.4089  -8.3240  -6.6599  -5.3814   2.6379   5.0210
     8.5851   9.0208   9.4991  10.2541

          k =-0.2348-0.5873 0.1039 (  3445 PWs)   bands (ev):

   -27.2069 -10.2120  -9.5802  -8.2256  -6.2298  -5.9223   6.5648   7.2069
     7.3327   9.4873  10.0422  11.8713

          k =-0.2348-0.5873 0.3116 (  3457 PWs)   bands (ev):

   -27.0673  -9.7555  -9.2673  -9.0174  -6.2529  -5.8705   5.0029   5.2993
     7.3812   9.6678  10.3391  11.3644

          k =-0.2348-0.5873 0.5193 (  3452 PWs)   bands (ev):

   -26.9218  -9.8140  -9.1766  -8.8403  -6.3993  -5.8125   3.5038   3.6908
     8.4107   9.7426  10.4090  10.5083

          k =-0.2348 0.3162 0.1039 (  3445 PWs)   bands (ev):

   -27.2251 -10.3052  -9.0161  -8.2566  -6.3960  -6.1977   6.8335   7.2142
     7.6503   8.9240  10.0054  11.4239

          k =-0.2348 0.3162 0.3116 (  3454 PWs)   bands (ev):

   -27.0832  -9.9177  -9.0563  -8.7713  -6.3623  -5.9665   4.7260   5.6042
     7.7663   9.2112  10.4131  10.9916

          k =-0.2348 0.3162 0.5193 (  3458 PWs)   bands (ev):

   -26.9354 -10.0298  -9.1121  -8.5495  -6.5990  -5.5314   3.1886   3.9397
     8.4784   9.2008  10.4391  10.7738

          k =-0.2348 0.1355 0.1039 (  3451 PWs)   bands (ev):

   -27.2498 -10.1003  -8.6289  -8.3083  -7.0124  -6.0402   6.7570   7.5500
     7.8284   8.0443  10.4345  10.9713

          k =-0.2348 0.1355 0.3116 (  3439 PWs)   bands (ev):

   -27.1049  -9.9104  -8.9769  -8.5023  -6.6297  -5.9059   4.5219   6.0052
     8.2033   8.4593  10.2202  10.8383

          k =-0.2348 0.1355 0.5193 (  3457 PWs)   bands (ev):

   -26.9539 -10.2661  -8.8831  -8.3698  -6.5947  -5.4586   2.9113   4.3492
     8.6838   8.9828   9.8638  10.7692

          k =-0.3913 0.2259 0.1039 (  3438 PWs)   bands (ev):

   -27.2184 -10.5105  -8.6902  -8.2397  -6.9132  -5.8710   7.0167   7.5450
     7.8276   8.1313  10.5916  11.0122

          k =-0.3913 0.2259 0.3116 (  3461 PWs)   bands (ev):

   -27.0774 -10.0673  -9.0458  -8.5549  -6.5449  -5.9374   5.0039   5.3532
     8.0836   8.9411  10.6722  10.7209

          k =-0.3913 0.2259 0.5193 (  3472 PWs)   bands (ev):

   -26.9305  -9.9759  -9.2514  -8.4140  -6.7571  -5.4919   3.3988   3.7018
     8.1686   9.6992  10.5816  10.6084

!    total energy              =    -139.76808576 Ry
     Harris-Foulkes estimate   =    -139.76808576 Ry
     estimated scf accuracy    <          2.0E-09 Ry

     The total energy is the sum of the following terms:

     one-electron contribution =     -14.43680789 Ry
     hartree contribution      =      23.16033155 Ry
     xc contribution           =     -26.57955131 Ry
     ewald contribution        =    -121.91205810 Ry

     convergence has been achieved in  11 iterations

     Forces acting on atoms (Ry/au):

     atom    1 type  3   force =    -0.00000000   -0.00000000   -0.00000559
     atom    2 type  2   force =    -0.00000000   -0.00000000   -0.00007351
     atom    3 type  2   force =     0.00000000    0.00000000    0.00008724
     atom    4 type  1   force =     0.00000000   -0.00000000    0.00008285
     atom    5 type  1   force =    -0.00000000   -0.00000000   -0.00009099

     Total force =     0.000168     Total SCF correction =     0.000098
     SCF correction compared to forces is large: reduce conv_thr to get better values


     entering subroutine stress ...

          total   stress  (Ry/bohr**3)                   (kbar)     P=  806.97
   0.00552243   0.00000000  -0.00000000        812.38      0.00     -0.00
   0.00000000   0.00552243  -0.00000000          0.00    812.38     -0.00
  -0.00000000  -0.00000000   0.00541211         -0.00     -0.00    796.15


     Writing output data file CaOH2_ambient.save

     init_run     :     50.70s CPU     51.53s WALL (       2 calls)
     electrons    :   2820.05s CPU   2857.48s WALL (      18 calls)
     update_pot   :    728.60s CPU    744.89s WALL (      16 calls)
     forces       :    268.15s CPU    269.27s WALL (      18 calls)
     stress       :    598.40s CPU    600.14s WALL (      18 calls)

     Called by init_run:
     wfcinit      :     13.18s CPU     13.38s WALL (       2 calls)
     potinit      :     15.79s CPU     16.03s WALL (       2 calls)

     Called by electrons:
     c_bands      :   2389.13s CPU   2417.80s WALL (     148 calls)
     sum_band     :    393.27s CPU    400.74s WALL (     148 calls)
     v_of_rho     :     19.58s CPU     20.01s WALL (     165 calls)
     mix_rho      :     19.28s CPU     19.95s WALL (     148 calls)

     Called by c_bands:
     init_us_2    :     68.12s CPU     72.59s WALL (   21042 calls)
     cegterg      :   2352.79s CPU   2365.35s WALL (    9324 calls)

     Called by *egterg:
     h_psi        :   1815.02s CPU   1824.23s WALL (   30456 calls)
     g_psi        :     14.22s CPU     14.48s WALL (   21006 calls)
     cdiaghg      :     15.39s CPU     15.50s WALL (   29259 calls)

     Called by h_psi:
     add_vuspsi   :     41.96s CPU     42.18s WALL (   30456 calls)

     General routines
     calbec       :     49.11s CPU     49.50s WALL (   32724 calls)
     fft          :      6.01s CPU      6.07s WALL (    1959 calls)
     ffts         :      8.55s CPU      8.59s WALL (    2793 calls)
     fftw         :   1667.50s CPU   1674.33s WALL (  739142 calls)
     davcio       :      6.90s CPU     23.35s WALL (   30366 calls)


     PWSCF        :     1h14m CPU        1h15m WALL


   This run was terminated on:   6:10:43  20Apr2014            

=------------------------------------------------------------------------------=
   JOB DONE.
=------------------------------------------------------------------------------=
