
     Program PWSCF v.5.0.2 (svn rev. 9392) starts on 19Apr2014 at 14:40:21 

     This program is part of the open-source Quantum ESPRESSO suite
     for quantum simulation of materials; please cite
         "P. Giannozzi et al., J. Phys.:Condens. Matter 21 395502 (2009);
          URL http://www.quantum-espresso.org", 
     in publications or presentations arising from this work. More details at
     http://www.quantum-espresso.org/quote.php

     Serial version

     Current dimensions of program PWSCF are:
     Max number of different atomic species (ntypx) = 10
     Max number of k-points (npk) =  40000
     Max angular momentum in pseudopotentials (lmaxx) =  3
     Waiting for input...
     Reading input from standard input

     G-vector sticks info
     --------------------
     sticks:   dense  smooth     PW     G-vecs:    dense   smooth      PW
     Sum         913     913    349                16131    16131    3725



     bravais-lattice index     =            4
     lattice parameter (alat)  =       6.3764  a.u.
     unit-cell volume          =     166.8192 (a.u.)^3
     number of atoms/cell      =            5
     number of atomic types    =            3
     number of electrons       =        24.00
     number of Kohn-Sham states=           12
     kinetic-energy cutoff     =     100.0000  Ry
     charge density cutoff     =     320.0000  Ry
     convergence threshold     =      1.0E-06
     mixing beta               =       0.3000
     number of iterations used =           16  local-TF  mixing
     Exchange-correlation      = PBE ( 1 4 3 4 0)
     EXX-fraction              =        0.00
     nstep                     =           50


     celldm(1)=   6.376400  celldm(2)=   0.000000  celldm(3)=   0.743000
     celldm(4)=   0.000000  celldm(5)=   0.000000  celldm(6)=   0.000000

     crystal axes: (cart. coord. in units of alat)
               a(1) = (   1.000000   0.000000   0.000000 )  
               a(2) = (  -0.500000   0.866025   0.000000 )  
               a(3) = (   0.000000   0.000000   0.743000 )  

     reciprocal axes: (cart. coord. in units 2 pi/alat)
               b(1) = (  1.000000  0.577350 -0.000000 )  
               b(2) = (  0.000000  1.154701  0.000000 )  
               b(3) = (  0.000000 -0.000000  1.345895 )  


     PseudoPot. # 1 for H  read from file:
     /home/ilia/espresso/pseudo/H.pbe-sp-mt.ncpp
     MD5 check sum: 7a641936b52ccecd26bd1ad87cca5aed
     Pseudo is Norm-conserving, Zval =  1.0
     Generated by old ld1 code (numerical format)
     Using radial grid of 1076 points,  0 beta functions with: 

     PseudoPot. # 2 for O  read from file:
     /home/ilia/espresso/pseudo/O.pbe-sp-mt.ncpp
     MD5 check sum: 8a3d23d410d2f3ebfd0a39faacc72cbb
     Pseudo is Norm-conserving, Zval =  6.0
     Generated by old ld1 code (numerical format)
     Using radial grid of 1130 points,  1 beta functions with: 
                l(1) =   1

     PseudoPot. # 3 for Ca read from file:
     /home/ilia/espresso/pseudo/Ca.pbe-sp-mt_ion2.ncpp
     MD5 check sum: 4bcd670d05521f7b178fdf0a334578ab
     Pseudo is Norm-conserving, Zval = 10.0
     Generated by old ld1 code (numerical format)
     Using radial grid of 1153 points,  1 beta functions with: 
                l(1) =   1

     atomic species   valence    mass     pseudopotential
        H              1.00     1.00700     H ( 1.00)
        O              6.00    16.00000     O ( 1.00)
        Ca            10.00    40.07800     Ca( 1.00)

      6 Sym. Ops. (no inversion) found



   Cartesian axes

     site n.     atom                  positions (alat units)
         1           Ca  tau(   1) = (   0.0000000   0.0000000   0.0000000  )
         2           O   tau(   2) = (   0.0000000   0.5773503   0.2132410  )
         3           O   tau(   3) = (   0.5000000   0.2886751   0.5290160  )
         4           H   tau(   4) = (   0.0000000   0.5773503   0.5007820  )
         5           H   tau(   5) = (   0.5000000   0.2886751   0.2414750  )

     number of k points=    63
                       cart. coord. in units 2pi/alat
        k(    1) = (   0.0833333   0.1443376   0.1121579), wk =   0.0370370
        k(    2) = (   0.0833333   0.1443376   0.3364738), wk =   0.0370370
        k(    3) = (   0.0833333   0.1443376   0.5607896), wk =   0.0370370
        k(    4) = (   0.0833333   0.3367877   0.1121579), wk =   0.0370370
        k(    5) = (   0.0833333   0.3367877   0.3364738), wk =   0.0370370
        k(    6) = (   0.0833333   0.3367877   0.5607896), wk =   0.0370370
        k(    7) = (   0.0833333   0.5292377   0.1121579), wk =   0.0370370
        k(    8) = (   0.0833333   0.5292377   0.3364738), wk =   0.0370370
        k(    9) = (   0.0833333   0.5292377   0.5607896), wk =   0.0370370
        k(   10) = (   0.0833333  -0.4330127   0.1121579), wk =   0.0370370
        k(   11) = (   0.0833333  -0.4330127   0.3364738), wk =   0.0370370
        k(   12) = (   0.0833333  -0.4330127   0.5607896), wk =   0.0370370
        k(   13) = (   0.0833333  -0.2405626   0.1121579), wk =   0.0370370
        k(   14) = (   0.0833333  -0.2405626   0.3364738), wk =   0.0370370
        k(   15) = (   0.0833333  -0.2405626   0.5607896), wk =   0.0370370
        k(   16) = (   0.0833333  -0.0481125   0.1121579), wk =   0.0185185
        k(   17) = (   0.0833333  -0.0481125   0.3364738), wk =   0.0185185
        k(   18) = (   0.0833333  -0.0481125   0.5607896), wk =   0.0185185
        k(   19) = (   0.2500000   0.4330127   0.1121579), wk =   0.0370370
        k(   20) = (   0.2500000   0.4330127   0.3364738), wk =   0.0370370
        k(   21) = (   0.2500000   0.4330127   0.5607896), wk =   0.0370370
        k(   22) = (   0.2500000   0.6254628   0.1121579), wk =   0.0370370
        k(   23) = (   0.2500000   0.6254628   0.3364738), wk =   0.0370370
        k(   24) = (   0.2500000   0.6254628   0.5607896), wk =   0.0370370
        k(   25) = (   0.2500000  -0.3367877   0.1121579), wk =   0.0370370
        k(   26) = (   0.2500000  -0.3367877   0.3364738), wk =   0.0370370
        k(   27) = (   0.2500000  -0.3367877   0.5607896), wk =   0.0370370
        k(   28) = (   0.2500000  -0.1443376   0.1121579), wk =   0.0185185
        k(   29) = (   0.2500000  -0.1443376   0.3364738), wk =   0.0185185
        k(   30) = (   0.2500000  -0.1443376   0.5607896), wk =   0.0185185
        k(   31) = (   0.4166667   0.7216878   0.1121579), wk =   0.0370370
        k(   32) = (   0.4166667   0.7216878   0.3364738), wk =   0.0370370
        k(   33) = (   0.4166667   0.7216878   0.5607896), wk =   0.0370370
        k(   34) = (   0.4166667  -0.2405626   0.1121579), wk =   0.0185185
        k(   35) = (   0.4166667  -0.2405626   0.3364738), wk =   0.0185185
        k(   36) = (   0.4166667  -0.2405626   0.5607896), wk =   0.0185185
        k(   37) = (  -0.0833333  -0.3367877   0.1121579), wk =   0.0370370
        k(   38) = (  -0.0833333  -0.3367877   0.3364738), wk =   0.0370370
        k(   39) = (  -0.0833333  -0.3367877   0.5607896), wk =   0.0370370
        k(   40) = (  -0.0833333  -0.5292377   0.1121579), wk =   0.0370370
        k(   41) = (  -0.0833333  -0.5292377   0.3364738), wk =   0.0370370
        k(   42) = (  -0.0833333  -0.5292377   0.5607896), wk =   0.0370370
        k(   43) = (  -0.0833333   0.4330127   0.1121579), wk =   0.0370370
        k(   44) = (  -0.0833333   0.4330127   0.3364738), wk =   0.0370370
        k(   45) = (  -0.0833333   0.4330127   0.5607896), wk =   0.0370370
        k(   46) = (  -0.0833333   0.2405626   0.1121579), wk =   0.0370370
        k(   47) = (  -0.0833333   0.2405626   0.3364738), wk =   0.0370370
        k(   48) = (  -0.0833333   0.2405626   0.5607896), wk =   0.0370370
        k(   49) = (  -0.0833333   0.0481125   0.1121579), wk =   0.0185185
        k(   50) = (  -0.0833333   0.0481125   0.3364738), wk =   0.0185185
        k(   51) = (  -0.0833333   0.0481125   0.5607896), wk =   0.0185185
        k(   52) = (  -0.2500000  -0.6254628   0.1121579), wk =   0.0370370
        k(   53) = (  -0.2500000  -0.6254628   0.3364738), wk =   0.0370370
        k(   54) = (  -0.2500000  -0.6254628   0.5607896), wk =   0.0370370
        k(   55) = (  -0.2500000   0.3367877   0.1121579), wk =   0.0370370
        k(   56) = (  -0.2500000   0.3367877   0.3364738), wk =   0.0370370
        k(   57) = (  -0.2500000   0.3367877   0.5607896), wk =   0.0370370
        k(   58) = (  -0.2500000   0.1443376   0.1121579), wk =   0.0185185
        k(   59) = (  -0.2500000   0.1443376   0.3364738), wk =   0.0185185
        k(   60) = (  -0.2500000   0.1443376   0.5607896), wk =   0.0185185
        k(   61) = (  -0.4166667   0.2405626   0.1121579), wk =   0.0185185
        k(   62) = (  -0.4166667   0.2405626   0.3364738), wk =   0.0185185
        k(   63) = (  -0.4166667   0.2405626   0.5607896), wk =   0.0185185

     Dense  grid:    16131 G-vectors     FFT dimensions: (  40,  40,  27)

     Largest allocated arrays     est. size (Mb)     dimensions
        Kohn-Sham Wavefunctions         0.52 Mb     (   2834,   12)
        NL pseudopotentials             0.39 Mb     (   2834,    9)
        Each V/rho on FFT grid          0.66 Mb     (  43200)
        Each G-vector array             0.12 Mb     (  16131)
        G-vector shells                 0.12 Mb     (  16131)
     Largest temporary arrays     est. size (Mb)     dimensions
        Auxiliary wavefunctions         2.08 Mb     (   2834,   48)
        Each subspace H/S matrix        0.04 Mb     (  48,  48)
        Each <psi_i|beta_j> matrix      0.00 Mb     (      9,   12)
        Arrays for rho mixing          10.55 Mb     (  43200,  16)

     Initial potential from superposition of free atoms

     starting charge   21.99998, renormalised to   24.00000
     Starting wfc are   14 randomized atomic wfcs

     total cpu time spent up to now is       28.8 secs

     per-process dynamical memory:    10.3 Mb

     Self-consistent Calculation

     iteration #  1     ecut=   100.00 Ry     beta=0.30
     Davidson diagonalization with overlap
     ethr =  1.00E-02,  avg # of iterations =  2.0

     total cpu time spent up to now is       39.6 secs

     total energy              =    -139.59409855 Ry
     Harris-Foulkes estimate   =    -139.68131477 Ry
     estimated scf accuracy    <       0.48878317 Ry

     iteration #  2     ecut=   100.00 Ry     beta=0.30
     Davidson diagonalization with overlap
     ethr =  2.04E-03,  avg # of iterations =  1.0

     total cpu time spent up to now is       47.0 secs

     total energy              =    -139.40018384 Ry
     Harris-Foulkes estimate   =    -139.60022978 Ry
     estimated scf accuracy    <       0.30844683 Ry

     iteration #  3     ecut=   100.00 Ry     beta=0.30
     Davidson diagonalization with overlap
     ethr =  1.29E-03,  avg # of iterations =  2.0

     total cpu time spent up to now is       57.8 secs

     total energy              =    -139.45895794 Ry
     Harris-Foulkes estimate   =    -139.46277718 Ry
     estimated scf accuracy    <       0.02178501 Ry

     iteration #  4     ecut=   100.00 Ry     beta=0.30
     Davidson diagonalization with overlap
     ethr =  9.08E-05,  avg # of iterations =  1.0

     total cpu time spent up to now is       65.4 secs

     total energy              =    -139.45470474 Ry
     Harris-Foulkes estimate   =    -139.45973060 Ry
     estimated scf accuracy    <       0.00981686 Ry

     iteration #  5     ecut=   100.00 Ry     beta=0.30
     Davidson diagonalization with overlap
     ethr =  4.09E-05,  avg # of iterations =  2.0

     total cpu time spent up to now is       76.2 secs

     total energy              =    -139.45636779 Ry
     Harris-Foulkes estimate   =    -139.45684761 Ry
     estimated scf accuracy    <       0.00287907 Ry

     iteration #  6     ecut=   100.00 Ry     beta=0.30
     Davidson diagonalization with overlap
     ethr =  1.20E-05,  avg # of iterations =  1.0

     total cpu time spent up to now is       83.6 secs

     total energy              =    -139.45547163 Ry
     Harris-Foulkes estimate   =    -139.45640896 Ry
     estimated scf accuracy    <       0.00169659 Ry

     iteration #  7     ecut=   100.00 Ry     beta=0.30
     Davidson diagonalization with overlap
     ethr =  7.07E-06,  avg # of iterations =  2.0

     total cpu time spent up to now is       93.1 secs

     total energy              =    -139.45593071 Ry
     Harris-Foulkes estimate   =    -139.45593978 Ry
     estimated scf accuracy    <       0.00006090 Ry

     iteration #  8     ecut=   100.00 Ry     beta=0.30
     Davidson diagonalization with overlap
     ethr =  2.54E-07,  avg # of iterations =  1.8

     total cpu time spent up to now is      100.6 secs

     total energy              =    -139.45592284 Ry
     Harris-Foulkes estimate   =    -139.45593319 Ry
     estimated scf accuracy    <       0.00003854 Ry

     iteration #  9     ecut=   100.00 Ry     beta=0.30
     Davidson diagonalization with overlap
     ethr =  1.61E-07,  avg # of iterations =  1.9

     total cpu time spent up to now is      108.2 secs

     total energy              =    -139.45592078 Ry
     Harris-Foulkes estimate   =    -139.45592512 Ry
     estimated scf accuracy    <       0.00000984 Ry

     iteration # 10     ecut=   100.00 Ry     beta=0.30
     Davidson diagonalization with overlap
     ethr =  4.10E-08,  avg # of iterations =  2.0

     total cpu time spent up to now is      117.8 secs

     End of self-consistent calculation

          k = 0.0833 0.1443 0.1122 (  2820 PWs)   bands (ev):

   -23.7877  -7.2781  -5.1028  -4.5446  -3.9221  -2.2757   9.5748   9.7542
    10.3258  11.9509  14.5439  15.1495

          k = 0.0833 0.1443 0.3365 (  2812 PWs)   bands (ev):

   -23.4868  -7.2294  -5.3722  -4.8500  -3.5127  -1.8854   6.8224   9.5968
    10.2173  11.0752  13.7408  14.9132

          k = 0.0833 0.1443 0.5608 (  2794 PWs)   bands (ev):

   -23.1593  -7.9525  -5.0698  -4.5991  -3.0865  -1.5008   4.7363   7.3672
    11.1800  12.2021  12.6911  13.9989

          k = 0.0833 0.3368 0.1122 (  2825 PWs)   bands (ev):

   -23.6995  -8.0610  -5.4879  -4.3783  -3.3205  -2.2861   9.7281  10.3317
    11.3430  11.8891  13.8996  15.2111

          k = 0.0833 0.3368 0.3365 (  2820 PWs)   bands (ev):

   -23.4104  -7.4142  -5.8219  -5.0595  -3.2003  -1.8457   6.9489   8.8821
    10.3155  12.2411  14.1792  15.1472

          k = 0.0833 0.3368 0.5608 (  2810 PWs)   bands (ev):

   -23.0970  -7.4377  -5.9332  -4.7618  -3.3715  -1.3742   5.0131   6.6179
    10.7863  12.4591  14.1716  14.5932

          k = 0.0833 0.5292 0.1122 (  2821 PWs)   bands (ev):

   -23.6335  -8.4680  -5.7793  -4.2058  -3.6602  -1.6031   9.9715  10.7332
    11.0360  12.1026  14.2992  15.1079

          k = 0.0833 0.5292 0.3365 (  2819 PWs)   bands (ev):

   -23.3534  -7.6737  -5.7421  -5.2331  -3.3811  -1.7454   7.5500   8.3582
    10.6272  12.4011  14.5576  14.9970

          k = 0.0833 0.5292 0.5608 (  2816 PWs)   bands (ev):

   -23.0506  -6.9158  -6.4350  -4.9134  -3.6366  -1.6672   5.4494   6.3736
    10.7168  13.0949  14.4397  14.5900

          k = 0.0833-0.4330 0.1122 (  2826 PWs)   bands (ev):

   -23.6578  -8.3475  -5.6462  -4.1066  -3.6247  -1.9899  10.3056  10.5289
    11.3886  11.9283  13.8738  14.7960

          k = 0.0833-0.4330 0.3365 (  2823 PWs)   bands (ev):

   -23.3744  -7.6624  -5.5225  -5.2528  -3.0798  -2.2383   7.7456   8.4643
    10.9453  12.3853  13.9345  14.4259

          k = 0.0833-0.4330 0.5608 (  2806 PWs)   bands (ev):

   -23.0676  -7.2291  -6.1135  -4.8586  -3.3989  -1.8141   5.6364   6.2525
    11.0483  12.7493  14.0598  14.3938

          k = 0.0833-0.2406 0.1122 (  2825 PWs)   bands (ev):

   -23.7471  -7.7115  -5.2633  -4.3204  -3.5258  -2.5522   9.7983  10.1631
    10.9135  11.7949  14.1365  14.9256

          k = 0.0833-0.2406 0.3365 (  2814 PWs)   bands (ev):

   -23.4516  -7.3557  -5.5294  -4.9636  -3.0574  -2.2599   7.0272   9.2797
    10.5982  11.5232  13.5903  14.8300

          k = 0.0833-0.2406 0.5608 (  2803 PWs)   bands (ev):

   -23.1305  -7.7512  -5.4738  -4.6745  -3.0813  -1.5800   4.9530   6.9504
    11.4470  11.8655  13.1491  14.4103

          k = 0.0833-0.0481 0.1122 (  2815 PWs)   bands (ev):

   -23.8109  -6.9319  -5.0229  -4.8030  -4.1369  -2.0610   9.4048   9.5398
     9.9873  12.0508  14.8183  15.2505

          k = 0.0833-0.0481 0.3365 (  2817 PWs)   bands (ev):

   -23.5071  -7.1829  -5.1144  -4.7964  -3.8843  -1.6952   6.7681   9.8341
    10.0353  10.6846  13.9615  14.7587

          k = 0.0833-0.0481 0.5608 (  2790 PWs)   bands (ev):

   -23.1759  -8.0630  -4.7618  -4.5610  -3.1374  -1.5198   4.6760   7.6511
    11.1741  12.0988  12.6686  13.5729

          k = 0.2500 0.4330 0.1122 (  2812 PWs)   bands (ev):

   -23.6338  -8.1594  -6.6573  -4.0873  -2.5799  -2.1543   9.4705  10.6502
    11.0457  12.9562  13.6119  15.5169

          k = 0.2500 0.4330 0.3365 (  2817 PWs)   bands (ev):

   -23.3536  -7.4332  -6.1113  -5.4755  -2.6324  -2.0984   7.6132   8.3438
    10.4541  12.8505  14.0728  14.9794

          k = 0.2500 0.4330 0.5608 (  2818 PWs)   bands (ev):

   -23.0507  -6.9759  -6.1531  -5.3558  -3.1651  -2.0131   5.7960   6.1640
    11.4023  12.6182  14.0526  14.4559

          k = 0.2500 0.6255 0.1122 (  2823 PWs)   bands (ev):

   -23.6160  -8.0568  -7.0705  -4.0566  -2.4926  -1.9425   9.3063  10.6580
    10.9193  13.2142  13.7030  15.7152

          k = 0.2500 0.6255 0.3365 (  2819 PWs)   bands (ev):

   -23.3382  -7.3213  -6.4342  -5.4670  -2.5049  -2.1058   7.9362   8.1006
    10.2787  13.1888  13.8780  15.1139

          k = 0.2500 0.6255 0.5608 (  2828 PWs)   bands (ev):

   -23.0383  -6.8035  -6.1582  -5.6108  -3.0229  -2.2854   5.9957   6.1138
    11.4516  13.0604  13.8911  14.1719

          k = 0.2500-0.3368 0.1122 (  2818 PWs)   bands (ev):

   -23.6644  -8.1744  -6.0753  -4.1757  -2.9407  -2.2529   9.6190  10.6237
    11.1847  12.3994  13.7061  15.3068

          k = 0.2500-0.3368 0.3365 (  2819 PWs)   bands (ev):

   -23.3801  -7.4694  -5.8551  -5.3514  -2.9274  -1.9681   7.2413   8.6180
    10.5001  12.4600  14.2839  14.9428

          k = 0.2500-0.3368 0.5608 (  2814 PWs)   bands (ev):

   -23.0723  -7.2061  -6.0916  -5.0277  -3.3056  -1.6536   5.3777   6.3774
    11.1082  12.4295  14.1883  14.6475

          k = 0.2500-0.1443 0.1122 (  2834 PWs)   bands (ev):

   -23.7297  -7.8621  -5.1572  -4.5761  -3.4603  -2.3621   9.8045   9.9326
    11.4610  11.5598  14.0280  15.2481

          k = 0.2500-0.1443 0.3365 (  2819 PWs)   bands (ev):

   -23.4366  -7.3284  -5.7895  -4.9079  -3.3019  -1.8234   6.8078   9.1047
    10.1455  12.0627  13.9712  15.2400

          k = 0.2500-0.1443 0.5608 (  2804 PWs)   bands (ev):

   -23.1183  -7.6249  -5.7078  -4.6495  -3.3240  -1.2831   4.8248   6.8337
    10.7065  12.4548  13.9429  14.3899

          k = 0.4167 0.7217 0.1122 (  2824 PWs)   bands (ev):

   -23.6224  -8.3147  -6.4980  -4.0741  -3.0765  -1.7106   9.6167  10.6589
    11.0016  12.6892  13.9795  15.4610

          k = 0.4167 0.7217 0.3365 (  2827 PWs)   bands (ev):

   -23.3438  -7.5456  -6.0066  -5.4448  -2.9193  -1.9133   7.8236   8.1725
    10.4986  12.7620  14.1726  15.0556

          k = 0.4167 0.7217 0.5608 (  2818 PWs)   bands (ev):

   -23.0428  -6.8562  -6.3191  -5.2741  -3.3363  -1.9779   5.7293   6.2648
    11.1137  13.0868  14.1685  14.3226

          k = 0.4167-0.2406 0.1122 (  2824 PWs)   bands (ev):

   -23.6465  -8.4612  -5.2884  -4.5305  -3.7813  -1.6424  10.1086  10.6456
    11.0371  11.9146  14.4971  14.8874

          k = 0.4167-0.2406 0.3365 (  2817 PWs)   bands (ev):

   -23.3646  -7.6639  -5.7562  -5.0210  -3.5730  -1.6618   7.3114   8.4981
    10.5495  12.3079  14.7752  15.0016

          k = 0.4167-0.2406 0.5608 (  2810 PWs)   bands (ev):

   -23.0597  -7.0043  -6.4214  -4.7387  -3.7318  -1.4864   5.2664   6.4305
    10.5508  12.9985  14.5903  14.7105

          k =-0.0833-0.3368 0.1122 (  2825 PWs)   bands (ev):

   -23.6995  -8.0858  -5.4602  -4.1894  -3.4164  -2.4399  10.0602  10.4732
    11.5597  11.6183  13.7854  14.7824

          k =-0.0833-0.3368 0.3365 (  2820 PWs)   bands (ev):

   -23.4104  -7.5252  -5.5470  -5.1127  -2.7028  -2.6184   7.3642   8.8902
    10.9118  11.9966  13.6736  14.5437

          k =-0.0833-0.3368 0.5608 (  2810 PWs)   bands (ev):

   -23.0970  -7.4934  -5.8384  -4.7678  -3.1937  -1.7212   5.3146   6.5320
    11.3466  12.1222  13.6413  14.5340

          k =-0.0833-0.5292 0.1122 (  2821 PWs)   bands (ev):

   -23.6335  -8.4766  -5.7665  -4.1102  -3.7326  -1.6581  10.2053  10.6265
    11.1879  12.0377  14.1690  14.9687

          k =-0.0833-0.5292 0.3365 (  2819 PWs)   bands (ev):

   -23.3534  -7.7160  -5.6011  -5.2824  -3.3140  -1.9340   7.9321   8.1676
    10.8012  12.4587  14.2421  14.7199

          k =-0.0833-0.5292 0.5608 (  2816 PWs)   bands (ev):

   -23.0506  -7.0095  -6.3166  -4.9176  -3.5832  -1.7937   5.6163   6.2928
    10.8316  13.1897  14.2181  14.4252

          k =-0.0833 0.4330 0.1122 (  2826 PWs)   bands (ev):

   -23.6579  -8.3258  -5.6760  -4.3022  -3.4966  -1.8514   9.8292  10.6191
    11.0745  12.1327  14.1316  15.1628

          k =-0.0833 0.4330 0.3365 (  2823 PWs)   bands (ev):

   -23.3744  -7.5568  -5.8364  -5.1589  -3.3158  -1.7180   7.1854   8.5811
    10.4637  12.3653  14.5818  15.1025

          k =-0.0833 0.4330 0.5608 (  2806 PWs)   bands (ev):

   -23.0676  -7.1152  -6.2775  -4.8511  -3.5464  -1.4939   5.2499   6.4289
    10.7044  12.7801  14.4625  14.7073

          k =-0.0833 0.2406 0.1122 (  2825 PWs)   bands (ev):

   -23.7471  -7.6956  -5.2749  -4.4448  -3.4427  -2.4880   9.6399  10.0134
    11.1601  11.6941  14.0724  15.2132

          k =-0.0833 0.2406 0.3365 (  2814 PWs)   bands (ev):

   -23.4516  -7.2990  -5.6605  -4.9467  -3.2115  -1.9683   6.8492   9.2548
    10.2143  11.8119  13.7773  15.0856

          k =-0.0833 0.2406 0.5608 (  2803 PWs)   bands (ev):

   -23.1305  -7.7353  -5.5050  -4.6709  -3.1889  -1.3904   4.8277   6.9650
    10.9510  12.2425  13.5104  14.3324

          k =-0.0833 0.0481 0.1122 (  2815 PWs)   bands (ev):

   -23.8109  -6.9381  -5.0255  -4.7591  -4.1692  -2.0685   9.5196   9.5252
     9.8948  12.0633  14.9604  15.0771

          k =-0.0833 0.0481 0.3365 (  2817 PWs)   bands (ev):

   -23.5071  -7.1917  -5.0838  -4.8021  -3.8831  -1.7260   6.7962   9.7966
    10.3397  10.4279  13.9444  14.7177

          k =-0.0833 0.0481 0.5608 (  2790 PWs)   bands (ev):

   -23.1759  -8.0645  -4.7574  -4.5641  -3.1129  -1.5559   4.6938   7.6520
    11.3536  11.9425  12.5467  13.6473

          k =-0.2500-0.6255 0.1122 (  2823 PWs)   bands (ev):

   -23.6160  -8.0534  -7.0748  -4.0597  -2.5068  -1.9196   9.2785  10.7079
    10.8704  13.1765  13.7532  15.7389

          k =-0.2500-0.6255 0.3365 (  2819 PWs)   bands (ev):

   -23.3382  -7.3040  -6.4621  -5.4616  -2.5608  -2.0333   7.8235   8.1817
    10.2654  13.1199  13.9732  15.1584

          k =-0.2500-0.6255 0.5608 (  2828 PWs)   bands (ev):

   -23.0383  -6.7821  -6.1953  -5.5982  -3.0460  -2.2519   5.9224   6.1748
    11.4177  13.0487  13.9927  14.1415

          k =-0.2500 0.3368 0.1122 (  2818 PWs)   bands (ev):

   -23.6644  -8.1861  -6.0571  -4.1322  -2.9047  -2.3663   9.7835  10.5770
    11.3219  12.3914  13.5584  15.1504

          k =-0.2500 0.3368 0.3365 (  2819 PWs)   bands (ev):

   -23.3800  -7.5248  -5.6533  -5.4550  -2.6771  -2.3359   7.4680   8.5851
    10.6932  12.4876  14.0117  14.6395

          k =-0.2500 0.3368 0.5608 (  2814 PWs)   bands (ev):

   -23.0723  -7.2481  -6.0222  -5.0368  -3.2260  -1.8079   5.5473   6.2991
    11.3767  12.2582  14.0400  14.5276

          k =-0.2500 0.1443 0.1122 (  2834 PWs)   bands (ev):

   -23.7297  -7.8928  -5.1621  -4.2510  -3.6689  -2.5050  10.2055  10.2242
    10.9495  11.7753  14.1469  14.5957

          k =-0.2500 0.1443 0.3365 (  2819 PWs)   bands (ev):

   -23.4365  -7.4525  -5.5228  -4.9186  -2.8972  -2.5410   7.2256   9.1518
    11.0469  11.4362  13.4905  14.6375

          k =-0.2500 0.1443 0.5608 (  2804 PWs)   bands (ev):

   -23.1183  -7.6681  -5.6298  -4.6554  -3.1019  -1.6913   5.1241   6.7818
    11.4615  11.9985  13.1457  14.5034

          k =-0.4167 0.2406 0.1122 (  2824 PWs)   bands (ev):

   -23.6465  -8.4787  -5.2907  -4.2001  -4.0395  -1.7532  10.4938  10.8424
    11.2717  11.5383  14.3216  14.5045

          k =-0.4167 0.2406 0.3365 (  2817 PWs)   bands (ev):

   -23.3646  -7.7497  -5.5401  -5.0261  -3.4607  -2.0552   7.9325   8.2874
    11.0006  12.3256  14.1236  14.4132

          k =-0.4167 0.2406 0.5608 (  2810 PWs)   bands (ev):

   -23.0597  -7.1470  -6.2353  -4.7415  -3.6174  -1.7603   5.6164   6.2733
    10.7896  13.1513  14.2343  14.2913

!    total energy              =    -139.45592305 Ry
     Harris-Foulkes estimate   =    -139.45592336 Ry
     estimated scf accuracy    <       0.00000060 Ry

     The total energy is the sum of the following terms:

     one-electron contribution =      -0.91007595 Ry
     hartree contribution      =      19.61011364 Ry
     xc contribution           =     -27.03793759 Ry
     ewald contribution        =    -131.11802315 Ry

     convergence has been achieved in  10 iterations

     Forces acting on atoms (Ry/au):

     atom    1 type  3   force =     0.00000000    0.00000000   -0.00009174
     atom    2 type  2   force =     0.00000000    0.00000000    0.02177103
     atom    3 type  2   force =     0.00000000   -0.00000000   -0.02176956
     atom    4 type  1   force =     0.00000000    0.00000000   -0.01389403
     atom    5 type  1   force =     0.00000000   -0.00000000    0.01398431

     Total force =     0.036558     Total SCF correction =     0.000129


     entering subroutine stress ...

          total   stress  (Ry/bohr**3)                   (kbar)     P= 1764.71
   0.01299244   0.00000000   0.00000000       1911.25      0.00      0.00
   0.00000000   0.01299244  -0.00000000          0.00   1911.25     -0.00
   0.00000000   0.00000000   0.01000398          0.00      0.00   1471.64


     BFGS Geometry Optimization

     number of scf cycles    =   1
     number of bfgs steps    =   0

     enthalpy new            =    -137.4146974042 Ry

     new trust radius        =       0.1441521639 bohr
     new conv_thr            =       0.0000010000 Ry

     new unit-cell volume =    163.52242 a.u.^3 (    24.23152 Ang^3 )

CELL_PARAMETERS (alat=  6.37640000)
   1.018907149   0.000000000   0.000000000
  -0.509453575   0.882399475   0.000000000
   0.000000000  -0.000000000   0.701537361

ATOMIC_POSITIONS (crystal)
Ca       0.000000000   0.000000000  -0.000019364
O        0.333333333   0.666666667   0.291595307
O        0.666666667   0.333333333   0.707405002
H        0.333333333   0.666666667   0.671067326
H        0.666666667   0.333333333   0.327951730



     Writing output data file CaOH2_ambient.save
     NEW-OLD atomic charge density approx. for the potential
     NEW k-points:
        k(    1) = (   0.0817870   0.1416592   0.1187867), wk =   0.0370370
        k(    2) = (   0.0817870   0.1416592   0.3563602), wk =   0.0370370
        k(    3) = (   0.0817870   0.1416592   0.5939337), wk =   0.0370370
        k(    4) = (   0.0817870   0.3305381   0.1187867), wk =   0.0370370
        k(    5) = (   0.0817870   0.3305381   0.3563602), wk =   0.0370370
        k(    6) = (   0.0817870   0.3305381   0.5939337), wk =   0.0370370
        k(    7) = (   0.0817870   0.5194171   0.1187867), wk =   0.0370370
        k(    8) = (   0.0817870   0.5194171   0.3563602), wk =   0.0370370
        k(    9) = (   0.0817870   0.5194171   0.5939337), wk =   0.0370370
        k(   10) = (   0.0817870  -0.4249776   0.1187867), wk =   0.0370370
        k(   11) = (   0.0817870  -0.4249776   0.3563602), wk =   0.0370370
        k(   12) = (   0.0817870  -0.4249776   0.5939337), wk =   0.0370370
        k(   13) = (   0.0817870  -0.2360987   0.1187867), wk =   0.0370370
        k(   14) = (   0.0817870  -0.2360987   0.3563602), wk =   0.0370370
        k(   15) = (   0.0817870  -0.2360987   0.5939337), wk =   0.0370370
        k(   16) = (   0.0817870  -0.0472197   0.1187867), wk =   0.0185185
        k(   17) = (   0.0817870  -0.0472197   0.3563602), wk =   0.0185185
        k(   18) = (   0.0817870  -0.0472197   0.5939337), wk =   0.0185185
        k(   19) = (   0.2453609   0.4249776   0.1187867), wk =   0.0370370
        k(   20) = (   0.2453609   0.4249776   0.3563602), wk =   0.0370370
        k(   21) = (   0.2453609   0.4249776   0.5939337), wk =   0.0370370
        k(   22) = (   0.2453609   0.6138565   0.1187867), wk =   0.0370370
        k(   23) = (   0.2453609   0.6138565   0.3563602), wk =   0.0370370
        k(   24) = (   0.2453609   0.6138565   0.5939337), wk =   0.0370370
        k(   25) = (   0.2453609  -0.3305381   0.1187867), wk =   0.0370370
        k(   26) = (   0.2453609  -0.3305381   0.3563602), wk =   0.0370370
        k(   27) = (   0.2453609  -0.3305381   0.5939337), wk =   0.0370370
        k(   28) = (   0.2453609  -0.1416592   0.1187867), wk =   0.0185185
        k(   29) = (   0.2453609  -0.1416592   0.3563602), wk =   0.0185185
        k(   30) = (   0.2453609  -0.1416592   0.5939337), wk =   0.0185185
        k(   31) = (   0.4089349   0.7082960   0.1187867), wk =   0.0370370
        k(   32) = (   0.4089349   0.7082960   0.3563602), wk =   0.0370370
        k(   33) = (   0.4089349   0.7082960   0.5939337), wk =   0.0370370
        k(   34) = (   0.4089349  -0.2360987   0.1187867), wk =   0.0185185
        k(   35) = (   0.4089349  -0.2360987   0.3563602), wk =   0.0185185
        k(   36) = (   0.4089349  -0.2360987   0.5939337), wk =   0.0185185
        k(   37) = (  -0.0817870  -0.3305381   0.1187867), wk =   0.0370370
        k(   38) = (  -0.0817870  -0.3305381   0.3563602), wk =   0.0370370
        k(   39) = (  -0.0817870  -0.3305381   0.5939337), wk =   0.0370370
        k(   40) = (  -0.0817870  -0.5194171   0.1187867), wk =   0.0370370
        k(   41) = (  -0.0817870  -0.5194171   0.3563602), wk =   0.0370370
        k(   42) = (  -0.0817870  -0.5194171   0.5939337), wk =   0.0370370
        k(   43) = (  -0.0817870   0.4249776   0.1187867), wk =   0.0370370
        k(   44) = (  -0.0817870   0.4249776   0.3563602), wk =   0.0370370
        k(   45) = (  -0.0817870   0.4249776   0.5939337), wk =   0.0370370
        k(   46) = (  -0.0817870   0.2360987   0.1187867), wk =   0.0370370
        k(   47) = (  -0.0817870   0.2360987   0.3563602), wk =   0.0370370
        k(   48) = (  -0.0817870   0.2360987   0.5939337), wk =   0.0370370
        k(   49) = (  -0.0817870   0.0472197   0.1187867), wk =   0.0185185
        k(   50) = (  -0.0817870   0.0472197   0.3563602), wk =   0.0185185
        k(   51) = (  -0.0817870   0.0472197   0.5939337), wk =   0.0185185
        k(   52) = (  -0.2453609  -0.6138565   0.1187867), wk =   0.0370370
        k(   53) = (  -0.2453609  -0.6138565   0.3563602), wk =   0.0370370
        k(   54) = (  -0.2453609  -0.6138565   0.5939337), wk =   0.0370370
        k(   55) = (  -0.2453609   0.3305381   0.1187867), wk =   0.0370370
        k(   56) = (  -0.2453609   0.3305381   0.3563602), wk =   0.0370370
        k(   57) = (  -0.2453609   0.3305381   0.5939337), wk =   0.0370370
        k(   58) = (  -0.2453609   0.1416592   0.1187867), wk =   0.0185185
        k(   59) = (  -0.2453609   0.1416592   0.3563602), wk =   0.0185185
        k(   60) = (  -0.2453609   0.1416592   0.5939337), wk =   0.0185185
        k(   61) = (  -0.4089349   0.2360987   0.1187867), wk =   0.0185185
        k(   62) = (  -0.4089349   0.2360987   0.3563602), wk =   0.0185185
        k(   63) = (  -0.4089349   0.2360987   0.5939337), wk =   0.0185185
     extrapolated charge   23.55645, renormalised to   24.00000

     total cpu time spent up to now is      180.0 secs

     per-process dynamical memory:    13.0 Mb

     Self-consistent Calculation

     iteration #  1     ecut=   100.00 Ry     beta=0.30
     Davidson diagonalization with overlap
     ethr =  1.00E-06,  avg # of iterations =  5.3

     total cpu time spent up to now is      199.5 secs

     total energy              =    -139.40651490 Ry
     Harris-Foulkes estimate   =    -139.47784892 Ry
     estimated scf accuracy    <       0.01694167 Ry

     iteration #  2     ecut=   100.00 Ry     beta=0.30
     Davidson diagonalization with overlap
     ethr =  7.06E-05,  avg # of iterations =  2.3

     total cpu time spent up to now is      210.6 secs

     total energy              =    -139.41477151 Ry
     Harris-Foulkes estimate   =    -139.41530693 Ry
     estimated scf accuracy    <       0.00281329 Ry

     iteration #  3     ecut=   100.00 Ry     beta=0.30
     Davidson diagonalization with overlap
     ethr =  1.17E-05,  avg # of iterations =  1.0

     total cpu time spent up to now is      217.8 secs

     total energy              =    -139.41377584 Ry
     Harris-Foulkes estimate   =    -139.41481837 Ry
     estimated scf accuracy    <       0.00172052 Ry

     iteration #  4     ecut=   100.00 Ry     beta=0.30
     Davidson diagonalization with overlap
     ethr =  7.17E-06,  avg # of iterations =  2.0

     total cpu time spent up to now is      227.3 secs

     total energy              =    -139.41406637 Ry
     Harris-Foulkes estimate   =    -139.41408686 Ry
     estimated scf accuracy    <       0.00008127 Ry

     iteration #  5     ecut=   100.00 Ry     beta=0.30
     Davidson diagonalization with overlap
     ethr =  3.39E-07,  avg # of iterations =  1.4

     total cpu time spent up to now is      234.5 secs

     total energy              =    -139.41405238 Ry
     Harris-Foulkes estimate   =    -139.41407018 Ry
     estimated scf accuracy    <       0.00003456 Ry

     iteration #  6     ecut=   100.00 Ry     beta=0.30
     Davidson diagonalization with overlap
     ethr =  1.44E-07,  avg # of iterations =  2.0

     total cpu time spent up to now is      244.0 secs

     total energy              =    -139.41406216 Ry
     Harris-Foulkes estimate   =    -139.41406230 Ry
     estimated scf accuracy    <       0.00000261 Ry

     iteration #  7     ecut=   100.00 Ry     beta=0.30
     Davidson diagonalization with overlap
     ethr =  1.09E-08,  avg # of iterations =  1.0

     total cpu time spent up to now is      251.2 secs

     total energy              =    -139.41406134 Ry
     Harris-Foulkes estimate   =    -139.41406222 Ry
     estimated scf accuracy    <       0.00000212 Ry

     iteration #  8     ecut=   100.00 Ry     beta=0.30
     Davidson diagonalization with overlap
     ethr =  8.85E-09,  avg # of iterations =  2.0

     total cpu time spent up to now is      260.1 secs

     End of self-consistent calculation

          k = 0.0818 0.1417 0.1188 (  2820 PWs)   bands (ev):

   -24.0254  -7.4248  -5.2345  -4.5197  -3.7857  -2.7729   9.6595  10.0765
    10.7873  12.5473  14.8327  15.4155

          k = 0.0818 0.1417 0.3564 (  2812 PWs)   bands (ev):

   -23.5780  -7.2159  -5.4100  -4.8847  -3.7349  -2.2658   7.1719   9.8470
    10.4258  11.1926  14.1504  15.2248

          k = 0.0818 0.1417 0.5939 (  2794 PWs)   bands (ev):

   -23.0721  -8.2645  -4.9358  -4.5192  -3.3546  -1.5455   4.5127   7.3631
    11.5267  12.4664  13.1401  14.4011

          k = 0.0818 0.3305 0.1188 (  2825 PWs)   bands (ev):

   -23.9525  -8.1478  -5.6065  -4.2257  -3.3919  -2.6993  10.0071  10.8217
    11.9044  12.1014  14.0993  15.4770

          k = 0.0818 0.3305 0.3564 (  2820 PWs)   bands (ev):

   -23.5160  -7.3879  -5.8410  -5.0918  -3.3906  -2.2301   7.4063   9.2484
    10.5364  12.2734  14.3949  15.4920

          k = 0.0818 0.3305 0.5939 (  2810 PWs)   bands (ev):

   -23.0242  -7.8634  -5.6755  -4.6560  -3.4783  -1.6061   5.0000   6.6529
    11.1342  12.6376  14.4983  14.9545

          k = 0.0818 0.5194 0.1188 (  2821 PWs)   bands (ev):

   -23.8982  -8.5128  -5.9102  -4.2179  -3.5956  -1.9665  10.2376  11.2758
    11.7830  12.1566  14.4539  15.3851

          k = 0.0818 0.5194 0.3564 (  2819 PWs)   bands (ev):

   -23.4698  -7.5889  -5.8473  -5.2695  -3.5390  -2.0393   8.0330   8.7075
    10.8322  12.4580  14.7178  15.3450

          k = 0.0818 0.5194 0.5939 (  2816 PWs)   bands (ev):

   -22.9887  -7.4920  -6.1220  -4.7715  -3.5570  -1.9487   5.5992   6.2675
    11.0623  13.2457  14.6673  14.9679

          k = 0.0818-0.4250 0.1188 (  2826 PWs)   bands (ev):

   -23.9182  -8.4022  -5.7785  -3.9896  -3.7258  -2.3034  10.3649  11.2972
    11.8313  12.1677  14.0588  15.1254

          k = 0.0818-0.4250 0.3564 (  2823 PWs)   bands (ev):

   -23.4868  -7.5841  -5.6666  -5.2562  -3.2927  -2.4528   8.0384   8.8995
    11.0990  12.4823  14.2125  14.7531

          k = 0.0818-0.4250 0.5939 (  2806 PWs)   bands (ev):

   -23.0017  -7.6678  -5.9228  -4.7262  -3.3610  -2.0639   5.5963   6.2925
    11.3858  12.9460  14.4543  14.6028

          k = 0.0818-0.2361 0.1188 (  2825 PWs)   bands (ev):

   -23.9918  -7.8232  -5.3900  -4.0520  -3.7241  -2.9479   9.9360  10.7207
    11.0251  12.4314  14.3999  15.2294

          k = 0.0818-0.2361 0.3564 (  2814 PWs)   bands (ev):

   -23.5493  -7.3314  -5.5765  -4.9918  -3.2845  -2.5885   7.3730   9.5856
    10.7725  11.6171  14.0212  15.1033

          k = 0.0818-0.2361 0.5939 (  2803 PWs)   bands (ev):

   -23.0500  -8.0983  -5.3022  -4.5813  -3.2843  -1.6943   4.7950   6.9948
    11.7501  12.1639  13.5492  14.7449

          k = 0.0818-0.0472 0.1188 (  2815 PWs)   bands (ev):

   -24.0446  -7.1054  -5.1618  -4.8993  -3.8357  -2.5995   9.4779   9.6973
    10.6662  12.6192  15.1126  15.5078

          k = 0.0818-0.0472 0.3564 (  2817 PWs)   bands (ev):

   -23.5944  -7.1657  -5.1655  -4.8351  -4.1011  -2.0933   7.0980  10.0572
    10.2480  10.8373  14.3537  15.1043

          k = 0.0818-0.0472 0.5939 (  2790 PWs)   bands (ev):

   -23.0849  -8.3554  -4.6640  -4.4876  -3.4293  -1.5115   4.3936   7.6055
    11.5507  12.4017  13.1066  14.0060

          k = 0.2454 0.4250 0.1188 (  2812 PWs)   bands (ev):

   -23.8984  -8.2221  -6.7646  -3.7203  -2.9494  -2.4784   9.5949  11.4034
    11.8140  12.9492  13.7178  15.8332

          k = 0.2454 0.4250 0.3564 (  2817 PWs)   bands (ev):

   -23.4700  -7.3686  -6.0794  -5.6273  -2.7992  -2.3777   8.0036   8.7701
    10.6220  12.9310  14.1770  15.4184

          k = 0.2454 0.4250 0.5939 (  2818 PWs)   bands (ev):

   -22.9888  -7.5192  -5.8824  -5.1543  -3.2015  -2.1969   5.7549   6.2135
    11.7190  12.7688  14.4707  14.6711

          k = 0.2454 0.6139 0.1188 (  2823 PWs)   bands (ev):

   -23.8838  -8.1169  -7.1677  -3.6854  -2.8538  -2.2883   9.4051  11.4592
    11.6983  13.2218  13.7800  16.0408

          k = 0.2454 0.6139 0.3564 (  2819 PWs)   bands (ev):

   -23.4576  -7.2484  -6.3977  -5.6354  -2.6913  -2.3391   8.3099   8.5368
    10.4515  13.2694  13.9698  15.5655

          k = 0.2454 0.6139 0.5939 (  2828 PWs)   bands (ev):

   -22.9793  -7.4104  -5.8779  -5.3597  -3.0471  -2.4430   6.0129   6.0827
    11.7657  13.2107  14.0932  14.5936

          k = 0.2454-0.3305 0.1188 (  2818 PWs)   bands (ev):

   -23.9236  -8.2459  -6.1926  -3.8659  -3.2109  -2.6154   9.8269  11.2495
    11.9433  12.3904  13.8574  15.6003

          k = 0.2454-0.3305 0.3564 (  2819 PWs)   bands (ev):

   -23.4914  -7.4215  -5.8651  -5.4326  -3.0952  -2.3043   7.6710   9.0165
    10.6883  12.5208  14.4197  15.3497

          k = 0.2454-0.3305 0.5939 (  2814 PWs)   bands (ev):

   -23.0053  -7.6870  -5.8211  -4.8830  -3.3692  -1.8723   5.3659   6.4192
    11.4353  12.5979  14.6083  14.8753

          k = 0.2454-0.1417 0.1188 (  2834 PWs)   bands (ev):

   -23.9775  -7.9670  -5.2801  -4.4747  -3.4375  -2.8213  10.0109  10.4528
    11.5745  12.2390  14.2633  15.4971

          k = 0.2454-0.1417 0.3564 (  2819 PWs)   bands (ev):

   -23.5372  -7.3185  -5.7950  -4.9305  -3.5109  -2.2302   7.2581   9.4431
    10.3770  12.0904  14.2407  15.5716

          k = 0.2454-0.1417 0.5939 (  2804 PWs)   bands (ev):

   -23.0406  -8.0076  -5.4768  -4.5585  -3.4828  -1.4879   4.7682   6.8665
    11.0678  12.6452  14.2390  14.8289

          k = 0.4089 0.7083 0.1188 (  2824 PWs)   bands (ev):

   -23.8891  -8.3637  -6.6166  -3.7332  -3.3829  -2.0643   9.7383  11.4225
    11.7601  12.6881  14.0969  15.7681

          k = 0.4089 0.7083 0.3564 (  2827 PWs)   bands (ev):

   -23.4621  -7.4616  -6.0177  -5.5809  -3.0864  -2.1693   8.2643   8.5443
    10.6725  12.8488  14.2974  15.4588

          k = 0.4089 0.7083 0.5939 (  2818 PWs)   bands (ev):

   -22.9827  -7.4401  -6.0342  -5.0697  -3.2980  -2.2047   5.8379   6.1667
    11.4337  13.2588  14.3540  14.7350

          k = 0.4089-0.2361 0.1188 (  2824 PWs)   bands (ev):

   -23.9089  -8.5107  -5.3962  -4.6859  -3.5897  -2.0171  10.7155  10.7426
    11.8102  12.0390  14.6415  15.1680

          k = 0.4089-0.2361 0.3564 (  2817 PWs)   bands (ev):

   -23.4789  -7.5890  -5.8586  -5.0279  -3.7458  -1.9915   7.8134   8.8521
    10.7811  12.3378  14.9187  15.3533

          k = 0.4089-0.2361 0.5939 (  2810 PWs)   bands (ev):

   -22.9956  -7.5623  -6.0943  -4.6307  -3.6656  -1.7844   5.4073   6.3528
    10.9084  13.1400  14.8105  15.1128

          k =-0.0818-0.3305 0.1188 (  2825 PWs)   bands (ev):

   -23.9525  -8.1651  -5.5881  -3.8255  -3.7877  -2.7412  10.2008  11.1331
    11.5359  12.2929  14.0130  15.1142

          k =-0.0818-0.3305 0.3564 (  2820 PWs)   bands (ev):

   -23.5160  -7.4741  -5.6364  -5.1311  -3.0073  -2.8005   7.6824   9.2642
    11.0536  12.0958  14.0713  14.8119

          k =-0.0818-0.3305 0.5939 (  2810 PWs)   bands (ev):

   -23.0242  -7.8848  -5.6480  -4.6563  -3.2822  -1.9085   5.1995   6.6102
    11.6758  12.3565  14.0305  14.7989

          k =-0.0818-0.5194 0.1188 (  2821 PWs)   bands (ev):

   -23.8982  -8.5190  -5.9009  -4.1412  -3.6615  -1.9978  10.3498  11.3277
    11.8333  12.1165  14.3426  15.2655

          k =-0.0818-0.5194 0.3564 (  2819 PWs)   bands (ev):

   -23.4698  -7.6241  -5.7462  -5.3013  -3.4820  -2.1783   8.3035   8.5719
    10.9840  12.5403  14.4478  15.0598

          k =-0.0818-0.5194 0.5939 (  2816 PWs)   bands (ev):

   -22.9887  -7.5108  -6.0968  -4.7705  -3.4794  -2.0728   5.7531   6.1764
    11.1739  13.3679  14.4291  14.7959

          k =-0.0818 0.4250 0.1188 (  2826 PWs)   bands (ev):

   -23.9182  -8.3867  -5.7998  -4.2337  -3.5078  -2.2322  10.1359  11.0876
    11.8615  12.1738  14.2795  15.4363

          k =-0.0818 0.4250 0.3564 (  2823 PWs)   bands (ev):

   -23.4868  -7.4987  -5.8935  -5.1950  -3.4868  -2.0660   7.6719   8.9554
    10.6814  12.4029  14.7199  15.4712

          k =-0.0818 0.4250 0.5939 (  2806 PWs)   bands (ev):

   -23.0017  -7.6350  -5.9678  -4.7277  -3.5518  -1.7632   5.3280   6.4075
    11.0516  12.9239  14.7898  15.0254

          k =-0.0818 0.2361 0.1188 (  2825 PWs)   bands (ev):

   -23.9918  -7.8124  -5.3965  -4.2665  -3.4852  -2.9595   9.8278  10.5289
    11.2754  12.3634  14.3292  15.4761

          k =-0.0818 0.2361 0.3564 (  2814 PWs)   bands (ev):

   -23.5493  -7.2885  -5.6741  -4.9785  -3.4228  -2.3565   7.2536   9.5712
    10.4314  11.8625  14.1113  15.4064

          k =-0.0818 0.2361 0.5939 (  2803 PWs)   bands (ev):

   -23.0500  -8.0911  -5.3084  -4.5795  -3.3880  -1.5409   4.7097   6.9996
    11.2992  12.4803  13.8611  14.7285

          k =-0.0818 0.0472 0.1188 (  2815 PWs)   bands (ev):

   -24.0446  -7.1093  -5.1640  -4.8748  -3.8545  -2.6020   9.5728   9.6254
    10.6492  12.6268  15.2638  15.3331

          k =-0.0818 0.0472 0.3564 (  2817 PWs)   bands (ev):

   -23.5944  -7.1724  -5.1422  -4.8400  -4.0985  -2.1163   7.1169  10.0119
    10.5485  10.5905  14.3647  15.0428

          k =-0.0818 0.0472 0.5939 (  2790 PWs)   bands (ev):

   -23.0849  -8.3562  -4.6646  -4.4904  -3.4074  -1.5384   4.4065   7.6064
    11.7023  12.2767  13.0066  14.0560

          k =-0.2454-0.6139 0.1188 (  2823 PWs)   bands (ev):

   -23.8838  -8.1145  -7.1708  -3.6913  -2.8557  -2.2769   9.3911  11.4850
    11.6656  13.1861  13.8270  16.0599

          k =-0.2454-0.6139 0.3564 (  2819 PWs)   bands (ev):

   -23.4576  -7.2339  -6.4231  -5.6282  -2.7371  -2.2821   8.2397   8.5848
    10.4394  13.1968  14.0637  15.6077

          k =-0.2454-0.6139 0.5939 (  2828 PWs)   bands (ev):

   -22.9793  -7.4071  -5.8846  -5.3581  -3.0743  -2.4085   5.9433   6.1433
    11.7358  13.1812  14.1887  14.5830

          k =-0.2454 0.3305 0.1188 (  2818 PWs)   bands (ev):

   -23.9236  -8.2542  -6.1801  -3.7648  -3.2952  -2.6537   9.9156  11.2866
    12.0086  12.4037  13.7263  15.4702

          k =-0.2454 0.3305 0.3564 (  2819 PWs)   bands (ev):

   -23.4914  -7.4655  -5.6817  -5.5415  -2.8615  -2.6178   7.8203   9.0029
    10.8535  12.5779  14.1863  15.0462

          k =-0.2454 0.3305 0.5939 (  2814 PWs)   bands (ev):

   -23.0053  -7.7001  -5.8020  -4.8814  -3.2787  -2.0126   5.4748   6.3770
    11.6911  12.4661  14.4548  14.7346

          k =-0.2454 0.1417 0.1188 (  2834 PWs)   bands (ev):

   -23.9775  -7.9881  -5.2843  -4.0225  -3.8867  -2.8378  10.2497  10.9469
    10.9661  12.4091  14.3869  14.9471

          k =-0.2454 0.1417 0.3564 (  2819 PWs)   bands (ev):

   -23.5371  -7.4131  -5.5965  -4.9400  -3.1760  -2.7780   7.5375   9.4773
    11.1540  11.5792  13.9831  14.8636

          k =-0.2454 0.1417 0.5939 (  2804 PWs)   bands (ev):

   -23.0405  -8.0262  -5.4567  -4.5639  -3.2542  -1.8291   4.9695   6.8448
    11.8018  12.2293  13.5740  14.7967

          k =-0.4089 0.2361 0.1188 (  2824 PWs)   bands (ev):

   -23.9089  -8.5233  -5.3982  -4.5371  -3.6987  -2.0792  10.8755  11.2178
    11.4801  12.0881  14.4905  14.8454

          k =-0.4089 0.2361 0.3564 (  2817 PWs)   bands (ev):

   -23.4789  -7.6596  -5.6973  -5.0325  -3.6464  -2.2804   8.2183   8.7350
    11.1828  12.3978  14.5373  14.5892

          k =-0.4089 0.2361 0.5939 (  2810 PWs)   bands (ev):

   -22.9956  -7.5973  -6.0479  -4.6334  -3.4994  -2.0471   5.6873   6.2131
    11.1452  13.3229  14.4970  14.6235

!    total energy              =    -139.41406152 Ry
     Harris-Foulkes estimate   =    -139.41406159 Ry
     estimated scf accuracy    <       0.00000009 Ry

     The total energy is the sum of the following terms:

     one-electron contribution =      -0.00081771 Ry
     hartree contribution      =      19.30878540 Ry
     xc contribution           =     -27.15780646 Ry
     ewald contribution        =    -131.56422276 Ry

     convergence has been achieved in   8 iterations

     Forces acting on atoms (Ry/au):

     atom    1 type  3   force =    -0.00000000    0.00000000   -0.00008737
     atom    2 type  2   force =     0.00000000   -0.00000000   -0.10702411
     atom    3 type  2   force =    -0.00000000   -0.00000000    0.10713268
     atom    4 type  1   force =    -0.00000000   -0.00000000    0.11829966
     atom    5 type  1   force =     0.00000000    0.00000000   -0.11832086

     Total force =     0.225668     Total SCF correction =     0.000261


     entering subroutine stress ...

          total   stress  (Ry/bohr**3)                   (kbar)     P= 1907.06
   0.01201460   0.00000000  -0.00000000       1767.41      0.00     -0.00
   0.00000000   0.01201460   0.00000000          0.00   1767.41      0.00
  -0.00000000   0.00000000   0.01486262         -0.00      0.00   2186.37


     number of scf cycles    =   2
     number of bfgs steps    =   1

     enthalpy old            =    -137.4146974042 Ry
     enthalpy new            =    -137.4131760718 Ry

     CASE: enthalpy_new > enthalpy_old

     new trust radius        =       0.0715305383 bohr
     new conv_thr            =       0.0000010000 Ry

     new unit-cell volume =    165.33321 a.u.^3 (    24.49985 Ang^3 )

CELL_PARAMETERS (alat=  6.37640000)
   1.008947316   0.000000000   0.000000000
  -0.504473658   0.873774006   0.000000000
   0.000000000  -0.000000000   0.723378886

ATOMIC_POSITIONS (crystal)
Ca       0.000000000   0.000000000  -0.000009164
O        0.333333333   0.666666667   0.289174609
O        0.666666667   0.333333333   0.709825537
H        0.333333333   0.666666667   0.672612188
H        0.666666667   0.333333333   0.326396829



     Writing output data file CaOH2_ambient.save
     NEW-OLD atomic charge density approx. for the potential
     NEW k-points:
        k(    1) = (   0.0825943   0.1430576   0.1152001), wk =   0.0370370
        k(    2) = (   0.0825943   0.1430576   0.3456004), wk =   0.0370370
        k(    3) = (   0.0825943   0.1430576   0.5760006), wk =   0.0370370
        k(    4) = (   0.0825943   0.3338010   0.1152001), wk =   0.0370370
        k(    5) = (   0.0825943   0.3338010   0.3456004), wk =   0.0370370
        k(    6) = (   0.0825943   0.3338010   0.5760006), wk =   0.0370370
        k(    7) = (   0.0825943   0.5245445   0.1152001), wk =   0.0370370
        k(    8) = (   0.0825943   0.5245445   0.3456004), wk =   0.0370370
        k(    9) = (   0.0825943   0.5245445   0.5760006), wk =   0.0370370
        k(   10) = (   0.0825943  -0.4291728   0.1152001), wk =   0.0370370
        k(   11) = (   0.0825943  -0.4291728   0.3456004), wk =   0.0370370
        k(   12) = (   0.0825943  -0.4291728   0.5760006), wk =   0.0370370
        k(   13) = (   0.0825943  -0.2384293   0.1152001), wk =   0.0370370
        k(   14) = (   0.0825943  -0.2384293   0.3456004), wk =   0.0370370
        k(   15) = (   0.0825943  -0.2384293   0.5760006), wk =   0.0370370
        k(   16) = (   0.0825943  -0.0476859   0.1152001), wk =   0.0185185
        k(   17) = (   0.0825943  -0.0476859   0.3456004), wk =   0.0185185
        k(   18) = (   0.0825943  -0.0476859   0.5760006), wk =   0.0185185
        k(   19) = (   0.2477830   0.4291728   0.1152001), wk =   0.0370370
        k(   20) = (   0.2477830   0.4291728   0.3456004), wk =   0.0370370
        k(   21) = (   0.2477830   0.4291728   0.5760006), wk =   0.0370370
        k(   22) = (   0.2477830   0.6199162   0.1152001), wk =   0.0370370
        k(   23) = (   0.2477830   0.6199162   0.3456004), wk =   0.0370370
        k(   24) = (   0.2477830   0.6199162   0.5760006), wk =   0.0370370
        k(   25) = (   0.2477830  -0.3338010   0.1152001), wk =   0.0370370
        k(   26) = (   0.2477830  -0.3338010   0.3456004), wk =   0.0370370
        k(   27) = (   0.2477830  -0.3338010   0.5760006), wk =   0.0370370
        k(   28) = (   0.2477830  -0.1430576   0.1152001), wk =   0.0185185
        k(   29) = (   0.2477830  -0.1430576   0.3456004), wk =   0.0185185
        k(   30) = (   0.2477830  -0.1430576   0.5760006), wk =   0.0185185
        k(   31) = (   0.4129717   0.7152879   0.1152001), wk =   0.0370370
        k(   32) = (   0.4129717   0.7152879   0.3456004), wk =   0.0370370
        k(   33) = (   0.4129717   0.7152879   0.5760006), wk =   0.0370370
        k(   34) = (   0.4129717  -0.2384293   0.1152001), wk =   0.0185185
        k(   35) = (   0.4129717  -0.2384293   0.3456004), wk =   0.0185185
        k(   36) = (   0.4129717  -0.2384293   0.5760006), wk =   0.0185185
        k(   37) = (  -0.0825943  -0.3338010   0.1152001), wk =   0.0370370
        k(   38) = (  -0.0825943  -0.3338010   0.3456004), wk =   0.0370370
        k(   39) = (  -0.0825943  -0.3338010   0.5760006), wk =   0.0370370
        k(   40) = (  -0.0825943  -0.5245445   0.1152001), wk =   0.0370370
        k(   41) = (  -0.0825943  -0.5245445   0.3456004), wk =   0.0370370
        k(   42) = (  -0.0825943  -0.5245445   0.5760006), wk =   0.0370370
        k(   43) = (  -0.0825943   0.4291728   0.1152001), wk =   0.0370370
        k(   44) = (  -0.0825943   0.4291728   0.3456004), wk =   0.0370370
        k(   45) = (  -0.0825943   0.4291728   0.5760006), wk =   0.0370370
        k(   46) = (  -0.0825943   0.2384293   0.1152001), wk =   0.0370370
        k(   47) = (  -0.0825943   0.2384293   0.3456004), wk =   0.0370370
        k(   48) = (  -0.0825943   0.2384293   0.5760006), wk =   0.0370370
        k(   49) = (  -0.0825943   0.0476859   0.1152001), wk =   0.0185185
        k(   50) = (  -0.0825943   0.0476859   0.3456004), wk =   0.0185185
        k(   51) = (  -0.0825943   0.0476859   0.5760006), wk =   0.0185185
        k(   52) = (  -0.2477830  -0.6199162   0.1152001), wk =   0.0370370
        k(   53) = (  -0.2477830  -0.6199162   0.3456004), wk =   0.0370370
        k(   54) = (  -0.2477830  -0.6199162   0.5760006), wk =   0.0370370
        k(   55) = (  -0.2477830   0.3338010   0.1152001), wk =   0.0370370
        k(   56) = (  -0.2477830   0.3338010   0.3456004), wk =   0.0370370
        k(   57) = (  -0.2477830   0.3338010   0.5760006), wk =   0.0370370
        k(   58) = (  -0.2477830   0.1430576   0.1152001), wk =   0.0185185
        k(   59) = (  -0.2477830   0.1430576   0.3456004), wk =   0.0185185
        k(   60) = (  -0.2477830   0.1430576   0.5760006), wk =   0.0185185
        k(   61) = (  -0.4129717   0.2384293   0.1152001), wk =   0.0185185
        k(   62) = (  -0.4129717   0.2384293   0.3456004), wk =   0.0185185
        k(   63) = (  -0.4129717   0.2384293   0.5760006), wk =   0.0185185
     extrapolated charge   24.24095, renormalised to   24.00000

     total cpu time spent up to now is      322.7 secs

     per-process dynamical memory:    16.4 Mb

     Self-consistent Calculation

     iteration #  1     ecut=   100.00 Ry     beta=0.30
     Davidson diagonalization with overlap
     ethr =  1.00E-06,  avg # of iterations =  4.9

     total cpu time spent up to now is      340.9 secs

     total energy              =    -139.44245084 Ry
     Harris-Foulkes estimate   =    -139.40900622 Ry
     estimated scf accuracy    <       0.00485402 Ry

     iteration #  2     ecut=   100.00 Ry     beta=0.30
     Davidson diagonalization with overlap
     ethr =  2.02E-05,  avg # of iterations =  2.7

     total cpu time spent up to now is      351.8 secs

     total energy              =    -139.44486902 Ry
     Harris-Foulkes estimate   =    -139.44506940 Ry
     estimated scf accuracy    <       0.00105534 Ry

     iteration #  3     ecut=   100.00 Ry     beta=0.30
     Davidson diagonalization with overlap
     ethr =  4.40E-06,  avg # of iterations =  1.0

     total cpu time spent up to now is      359.8 secs

     total energy              =    -139.44447813 Ry
     Harris-Foulkes estimate   =    -139.44488389 Ry
     estimated scf accuracy    <       0.00065237 Ry

     iteration #  4     ecut=   100.00 Ry     beta=0.30
     Davidson diagonalization with overlap
     ethr =  2.72E-06,  avg # of iterations =  2.0

     total cpu time spent up to now is      369.3 secs

     total energy              =    -139.44459568 Ry
     Harris-Foulkes estimate   =    -139.44460577 Ry
     estimated scf accuracy    <       0.00004084 Ry

     iteration #  5     ecut=   100.00 Ry     beta=0.30
     Davidson diagonalization with overlap
     ethr =  1.70E-07,  avg # of iterations =  1.3

     total cpu time spent up to now is      376.5 secs

     total energy              =    -139.44458789 Ry
     Harris-Foulkes estimate   =    -139.44459739 Ry
     estimated scf accuracy    <       0.00001790 Ry

     iteration #  6     ecut=   100.00 Ry     beta=0.30
     Davidson diagonalization with overlap
     ethr =  7.46E-08,  avg # of iterations =  2.0

     total cpu time spent up to now is      385.8 secs

     total energy              =    -139.44459289 Ry
     Harris-Foulkes estimate   =    -139.44459298 Ry
     estimated scf accuracy    <       0.00000107 Ry

     iteration #  7     ecut=   100.00 Ry     beta=0.30
     Davidson diagonalization with overlap
     ethr =  4.45E-09,  avg # of iterations =  1.2

     total cpu time spent up to now is      392.8 secs

     End of self-consistent calculation

          k = 0.0826 0.1431 0.1152 (  2820 PWs)   bands (ev):

   -23.8907  -7.3446  -5.1618  -4.5042  -3.8925  -2.5154   9.6138   9.9509
    10.4673  12.2125  14.6786  15.2742

          k = 0.0826 0.1431 0.3456 (  2812 PWs)   bands (ev):

   -23.5279  -7.2262  -5.3849  -4.8682  -3.6177  -2.0594   6.9627   9.7035
    10.3043  11.1185  13.9233  15.0533

          k = 0.0826 0.1431 0.5760 (  2794 PWs)   bands (ev):

   -23.1265  -8.0800  -5.0087  -4.5686  -3.2209  -1.5198   4.6090   7.3620
    11.3269  12.3100  12.8866  14.1729

          k = 0.0826 0.3338 0.1152 (  2825 PWs)   bands (ev):

   -23.8101  -8.0985  -5.5391  -4.2858  -3.3897  -2.4799   9.8847  10.5261
    11.6845  11.8779  13.9932  15.3387

          k = 0.0826 0.3338 0.3456 (  2820 PWs)   bands (ev):

   -23.4586  -7.4023  -5.8270  -5.0758  -3.2889  -2.0278   7.1462   9.0455
    10.4072  12.2421  14.2716  15.3047

          k = 0.0826 0.3338 0.5760 (  2810 PWs)   bands (ev):

   -23.0714  -7.6163  -5.8127  -4.7188  -3.4321  -1.4865   4.9950   6.6288
    10.9333  12.5248  14.3125  14.7448

          k = 0.0826 0.5245 0.1152 (  2821 PWs)   bands (ev):

   -23.7499  -8.4847  -5.8364  -4.1615  -3.6974  -1.7712  10.1202  10.9578
    11.3756  12.1054  14.3747  15.2402

          k = 0.0826 0.5245 0.3456 (  2819 PWs)   bands (ev):

   -23.4071  -7.6314  -5.7909  -5.2517  -3.4499  -1.8888   7.7647   8.5092
    10.7119  12.4157  14.6281  15.1504

          k = 0.0826 0.5245 0.5760 (  2816 PWs)   bands (ev):

   -23.0305  -7.1627  -6.2941  -4.8524  -3.6062  -1.8055   5.5144   6.3137
    10.8626  13.1486  14.5393  14.7450

          k = 0.0826-0.4292 0.1152 (  2826 PWs)   bands (ev):

   -23.7720  -8.3692  -5.7042  -3.9514  -3.7889  -2.1345  10.3294  10.8712
    11.6676  11.9507  13.9612  14.9528

          k = 0.0826-0.4292 0.3456 (  2823 PWs)   bands (ev):

   -23.4260  -7.6244  -5.5895  -5.2544  -3.1729  -2.3449   7.8650   8.6589
    11.0059  12.4189  14.0639  14.5643

          k = 0.0826-0.4292 0.5760 (  2806 PWs)   bands (ev):

   -23.0455  -7.4029  -6.0372  -4.8024  -3.3891  -1.9370   5.6131   6.2594
    11.1908  12.8242  14.2292  14.4773

          k = 0.0826-0.2384 0.1152 (  2825 PWs)   bands (ev):

   -23.8535  -7.7611  -5.3193  -4.1830  -3.6308  -2.7501   9.8778  10.4236
    10.9224  12.0764  14.2610  15.0685

          k = 0.0826-0.2384 0.3456 (  2814 PWs)   bands (ev):

   -23.4959  -7.3464  -5.5462  -4.9786  -3.1655  -2.4108   7.1680   9.4135
    10.6686  11.5533  13.7847  14.9516

          k = 0.0826-0.2384 0.5760 (  2803 PWs)   bands (ev):

   -23.1011  -7.8936  -5.3942  -4.6376  -3.1868  -1.6343   4.8608   6.9678
    11.5722  11.9906  13.3203  14.5518

          k = 0.0826-0.0477 0.1152 (  2815 PWs)   bands (ev):

   -23.9120  -7.0111  -5.0860  -4.8366  -4.0147  -2.3177   9.4320   9.6349
    10.2611  12.2986  14.9547  15.3706

          k = 0.0826-0.0477 0.3456 (  2817 PWs)   bands (ev):

   -23.5462  -7.1781  -5.1348  -4.8166  -3.9850  -1.8770   6.8972   9.9276
    10.1245  10.7457  14.1356  14.9143

          k = 0.0826-0.0477 0.5760 (  2790 PWs)   bands (ev):

   -23.1411  -8.1819  -4.7202  -4.5337  -3.2795  -1.5131   4.5182   7.6260
    11.3362  12.2270  12.8573  13.7619

          k = 0.2478 0.4292 0.1152 (  2812 PWs)   bands (ev):

   -23.7501  -8.1848  -6.7031  -3.9342  -2.7507  -2.3048   9.5258  10.9870
    11.3953  12.9459  13.6622  15.6669

          k = 0.2478 0.4292 0.3456 (  2817 PWs)   bands (ev):

   -23.4073  -7.4012  -6.0945  -5.5469  -2.7088  -2.2326   7.7806   8.5335
    10.5226  12.8746  14.1140  15.1776

          k = 0.2478 0.4292 0.5760 (  2818 PWs)   bands (ev):

   -23.0306  -7.2056  -6.0317  -5.2674  -3.1906  -2.1049   5.7674   6.1807
    11.5354  12.6712  14.2467  14.5288

          k = 0.2478 0.6199 0.1152 (  2823 PWs)   bands (ev):

   -23.7339  -8.0807  -7.1117  -3.9035  -2.6589  -2.1018   9.3463  11.0214
    11.2733  13.2134  13.7388  15.8691

          k = 0.2478 0.6199 0.3456 (  2819 PWs)   bands (ev):

   -23.3934  -7.2849  -6.4150  -5.5469  -2.5901  -2.2184   8.0971   8.2933
    10.3503  13.2147  13.9115  15.3176

          k = 0.2478 0.6199 0.5760 (  2828 PWs)   bands (ev):

   -23.0197  -7.0650  -6.0340  -5.4960  -3.0413  -2.3656   6.0019   6.0850
    11.5837  13.1149  13.9851  14.3393

          k = 0.2478-0.3338 0.1152 (  2818 PWs)   bands (ev):

   -23.7780  -8.2043  -6.1256  -4.0352  -3.0775  -2.4231   9.7244  10.8909
    11.5322  12.3817  13.7781  15.4467

          k = 0.2478-0.3338 0.3456 (  2819 PWs)   bands (ev):

   -23.4312  -7.4462  -5.8560  -5.3909  -3.0052  -2.1283   7.4265   8.7958
    10.5772  12.4741  14.3396  15.1281

          k = 0.2478-0.3338 0.5760 (  2814 PWs)   bands (ev):

   -23.0496  -7.4087  -5.9666  -4.9668  -3.3453  -1.7609   5.3623   6.3907
    11.2456  12.4907  14.3728  14.7366

          k = 0.2478-0.1431 0.1152 (  2834 PWs)   bands (ev):

   -23.8377  -7.9084  -5.2126  -4.5039  -3.4865  -2.5776   9.9616  10.1137
    11.5058  11.8456  14.1370  15.3676

          k = 0.2478-0.1431 0.3456 (  2819 PWs)   bands (ev):

   -23.4823  -7.3255  -5.7872  -4.9202  -3.3997  -2.0142   7.0002   9.2551
    10.2422  12.0619  14.0876  15.3922

          k = 0.2478-0.1431 0.5760 (  2804 PWs)   bands (ev):

   -23.0902  -7.7843  -5.5995  -4.6135  -3.4089  -1.3810   4.7830   6.8446
    10.8600  12.5257  14.0650  14.5827

          k = 0.4130 0.7153 0.1152 (  2824 PWs)   bands (ev):

   -23.7397  -8.3334  -6.5493  -3.9265  -3.2256  -1.8737   9.6729  11.0001
    11.3456  12.6812  14.0360  15.6066

          k = 0.4130 0.7153 0.3456 (  2827 PWs)   bands (ev):

   -23.3984  -7.5037  -6.0093  -5.5108  -2.9940  -2.0380   8.0200   8.3315
    10.5698  12.7912  14.2233  15.2357

          k = 0.4130 0.7153 0.5760 (  2818 PWs)   bands (ev):

   -23.0236  -7.1030  -6.1962  -5.1822  -3.3253  -2.0906   5.7741   6.2092
    11.2480  13.1517  14.2499  14.4908

          k = 0.4130-0.2384 0.1152 (  2824 PWs)   bands (ev):

   -23.7617  -8.4803  -5.3365  -4.5741  -3.7360  -1.8164  10.4168  10.6699
    11.3904  11.9395  14.5652  15.0243

          k = 0.4130-0.2384 0.3456 (  2817 PWs)   bands (ev):

   -23.4172  -7.6265  -5.8045  -5.0257  -3.6483  -1.8220   7.5339   8.6530
    10.6458  12.3095  14.8334  15.1625

          k = 0.4130-0.2384 0.5760 (  2810 PWs)   bands (ev):

   -23.0385  -7.2465  -6.2689  -4.6943  -3.7085  -1.6322   5.3272   6.3839
    10.7023  13.0473  14.6777  14.8859

          k =-0.0826-0.3338 0.1152 (  2825 PWs)   bands (ev):

   -23.8101  -8.1196  -5.5164  -4.0310  -3.5887  -2.5841  10.1413  10.7443
    11.5436  11.9190  13.8932  14.9396

          k =-0.0826-0.3338 0.3456 (  2820 PWs)   bands (ev):

   -23.4586  -7.5016  -5.5850  -5.1228  -2.8403  -2.7083   7.4938   9.0564
    10.9667  12.0290  13.8556  14.6599

          k =-0.0826-0.3338 0.5760 (  2810 PWs)   bands (ev):

   -23.0714  -7.6528  -5.7530  -4.7220  -3.2446  -1.8134   5.2468   6.5644
    11.4853  12.2148  13.8080  14.6429

          k =-0.0826-0.5245 0.1152 (  2821 PWs)   bands (ev):

   -23.7498  -8.4922  -5.8253  -4.0408  -3.8008  -1.8145  10.2891  10.9245
    11.4998  12.0410  14.2531  15.1096

          k =-0.0826-0.5245 0.3456 (  2819 PWs)   bands (ev):

   -23.4071  -7.6706  -5.6692  -5.2923  -3.3863  -2.0544   8.1007   8.3368
    10.8756  12.4861  14.3352  14.8662

          k =-0.0826-0.5245 0.5760 (  2816 PWs)   bands (ev):

   -23.0305  -7.2058  -6.2357  -4.8536  -3.5411  -1.9307   5.6773   6.2258
    10.9761  13.2567  14.3068  14.5795

          k =-0.0826 0.4292 0.1152 (  2826 PWs)   bands (ev):

   -23.7720  -8.3505  -5.7296  -4.2361  -3.5523  -2.0288   9.9963  10.8067
    11.4334  12.1308  14.2021  15.2945

          k =-0.0826 0.4292 0.3456 (  2823 PWs)   bands (ev):

   -23.4261  -7.5279  -5.8615  -5.1769  -3.3929  -1.8857   7.3991   8.7469
    10.5540  12.3694  14.6381  15.2710

          k =-0.0826 0.4292 0.5760 (  2806 PWs)   bands (ev):

   -23.0455  -7.3386  -6.1327  -4.7996  -3.5580  -1.6256   5.2796   6.4101
    10.8510  12.8294  14.6128  14.8304

          k =-0.0826 0.2384 0.1152 (  2825 PWs)   bands (ev):

   -23.8535  -7.7477  -5.3280  -4.3436  -3.4891  -2.7138   9.7487  10.2385
    11.1819  11.9910  14.1920  15.3380

          k =-0.0826 0.2384 0.3456 (  2814 PWs)   bands (ev):

   -23.4959  -7.2964  -5.6614  -4.9632  -3.3120  -2.1482   7.0183   9.3945
    10.3045  11.8220  13.9247  15.2312

          k =-0.0826 0.2384 0.5760 (  2803 PWs)   bands (ev):

   -23.1011  -7.8822  -5.4131  -4.6349  -3.2926  -1.4617   4.7548   6.9776
    11.0983  12.3373  13.6586  14.5035

          k =-0.0826 0.0477 0.1152 (  2815 PWs)   bands (ev):

   -23.9120  -7.0160  -5.0884  -4.8031  -4.0390  -2.3231   9.5376   9.5760
    10.2212  12.3086  15.1013  15.1967

          k =-0.0826 0.0477 0.3456 (  2817 PWs)   bands (ev):

   -23.5462  -7.1859  -5.1076  -4.8219  -3.9831  -1.9041   6.9208   9.8857
    10.4270  10.4942  14.1324  14.8631

          k =-0.0826 0.0477 0.5760 (  2790 PWs)   bands (ev):

   -23.1411  -8.1830  -4.7181  -4.5366  -3.2565  -1.5448   4.5337   7.6268
    11.5017  12.0869  12.7459  13.8241

          k =-0.2478-0.6199 0.1152 (  2823 PWs)   bands (ev):

   -23.7339  -8.0778  -7.1154  -3.9074  -2.6677  -2.0846   9.3265  11.0581
    11.2323  13.1764  13.7879  15.8905

          k =-0.2478-0.6199 0.3456 (  2819 PWs)   bands (ev):

   -23.3934  -7.2687  -6.4419  -5.5406  -2.6420  -2.1526   8.0052   8.3583
    10.3375  13.1435  14.0068  15.3610

          k =-0.2478-0.6199 0.5760 (  2828 PWs)   bands (ev):

   -23.0197  -7.0567  -6.0508  -5.4900  -3.0664  -2.3316   5.9259   6.1503
    11.5517  13.0937  14.0907  14.3125

          k =-0.2478 0.3338 0.1152 (  2818 PWs)   bands (ev):

   -23.7780  -8.2143  -6.1103  -3.9769  -3.0856  -2.5008   9.8468  10.8870
    11.6442  12.3779  13.6378  15.3024

          k =-0.2478 0.3338 0.3456 (  2819 PWs)   bands (ev):

   -23.4312  -7.4963  -5.6574  -5.5024  -2.7586  -2.4739   7.6155   8.7720
    10.7574  12.5162  14.0871  14.8217

          k =-0.2478 0.3338 0.5760 (  2814 PWs)   bands (ev):

   -23.0496  -7.4335  -5.9252  -4.9703  -3.2600  -1.9090   5.5021   6.3304
    11.5082  12.3389  14.2182  14.6097

          k =-0.2478 0.1431 0.1152 (  2834 PWs)   bands (ev):

   -23.8377  -7.9344  -5.2171  -4.0921  -3.8272  -2.6684  10.2283  10.5447
    10.9440  12.0559  14.2610  14.7613

          k =-0.2478 0.1431 0.3456 (  2819 PWs)   bands (ev):

   -23.4823  -7.4354  -5.5530  -4.9304  -3.0268  -2.6513   7.3509   9.2946
    11.0852  11.4892  13.7138  14.7376

          k =-0.2478 0.1431 0.5760 (  2804 PWs)   bands (ev):

   -23.0902  -7.8142  -5.5506  -4.6192  -3.1827  -1.7586   5.0349   6.8078
    11.6061  12.0877  13.3322  14.6255

          k =-0.4130 0.2384 0.1152 (  2824 PWs)   bands (ev):

   -23.7617  -8.4954  -5.3387  -4.3409  -3.9125  -1.9031  10.8442  10.8490
    11.3895  11.7334  14.4006  14.6689

          k =-0.4130 0.2384 0.3456 (  2817 PWs)   bands (ev):

   -23.4172  -7.7055  -5.6144  -5.0305  -3.5393  -2.1668   8.0511   8.4859
    11.0743  12.3481  14.3107  14.4867

          k =-0.4130 0.2384 0.5760 (  2810 PWs)   bands (ev):

   -23.0385  -7.3204  -6.1677  -4.6971  -3.5686  -1.9007   5.6507   6.2279
    10.9405  13.2136  14.3730  14.4031

!    total energy              =    -139.44459237 Ry
     Harris-Foulkes estimate   =    -139.44459292 Ry
     estimated scf accuracy    <       0.00000078 Ry

     The total energy is the sum of the following terms:

     one-electron contribution =      -0.46184173 Ry
     hartree contribution      =      19.45416921 Ry
     xc contribution           =     -27.09132419 Ry
     ewald contribution        =    -131.34559567 Ry

     convergence has been achieved in   7 iterations

     Forces acting on atoms (Ry/au):

     atom    1 type  3   force =     0.00000000   -0.00000000   -0.00008761
     atom    2 type  2   force =     0.00000000   -0.00000000   -0.03343470
     atom    3 type  2   force =    -0.00000000    0.00000000    0.03347656
     atom    4 type  1   force =    -0.00000000    0.00000000    0.04291068
     atom    5 type  1   force =    -0.00000000    0.00000000   -0.04286493

     Total force =     0.076924     Total SCF correction =     0.000177


     entering subroutine stress ...

          total   stress  (Ry/bohr**3)                   (kbar)     P= 1823.29
   0.01256216  -0.00000000  -0.00000000       1847.96     -0.00     -0.00
  -0.00000000   0.01256216  -0.00000000         -0.00   1847.96     -0.00
  -0.00000000  -0.00000000   0.01205908         -0.00     -0.00   1773.95


     number of scf cycles    =   3
     number of bfgs steps    =   1

     enthalpy old            =    -137.4146974042 Ry
     enthalpy new            =    -137.4215498570 Ry

     CASE: enthalpy_new < enthalpy_old

     new trust radius        =       0.0481629419 bohr
     new conv_thr            =       0.0000004291 Ry

     new unit-cell volume =    166.42411 a.u.^3 (    24.66151 Ang^3 )

CELL_PARAMETERS (alat=  6.37640000)
   1.021884874   0.000000000  -0.000000000
  -0.510942437   0.884978260  -0.000000000
  -0.000000000  -0.000000000   0.709831086

ATOMIC_POSITIONS (crystal)
Ca       0.000000000   0.000000000  -0.000032642
O        0.333333333   0.666666667   0.283120596
O        0.666666667   0.333333333   0.715888599
H        0.333333333   0.666666667   0.681101021
H        0.666666667   0.333333333   0.317922426



     Writing output data file CaOH2_ambient.save
     NEW-OLD atomic charge density approx. for the potential
     NEW k-points:
        k(    1) = (   0.0815487   0.1412464   0.1173988), wk =   0.0370370
        k(    2) = (   0.0815487   0.1412464   0.3521965), wk =   0.0370370
        k(    3) = (   0.0815487   0.1412464   0.5869941), wk =   0.0370370
        k(    4) = (   0.0815487   0.3295750   0.1173988), wk =   0.0370370
        k(    5) = (   0.0815487   0.3295750   0.3521965), wk =   0.0370370
        k(    6) = (   0.0815487   0.3295750   0.5869941), wk =   0.0370370
        k(    7) = (   0.0815487   0.5179035   0.1173988), wk =   0.0370370
        k(    8) = (   0.0815487   0.5179035   0.3521965), wk =   0.0370370
        k(    9) = (   0.0815487   0.5179035   0.5869941), wk =   0.0370370
        k(   10) = (   0.0815487  -0.4237392   0.1173988), wk =   0.0370370
        k(   11) = (   0.0815487  -0.4237392   0.3521965), wk =   0.0370370
        k(   12) = (   0.0815487  -0.4237392   0.5869941), wk =   0.0370370
        k(   13) = (   0.0815487  -0.2354107   0.1173988), wk =   0.0370370
        k(   14) = (   0.0815487  -0.2354107   0.3521965), wk =   0.0370370
        k(   15) = (   0.0815487  -0.2354107   0.5869941), wk =   0.0370370
        k(   16) = (   0.0815487  -0.0470821   0.1173988), wk =   0.0185185
        k(   17) = (   0.0815487  -0.0470821   0.3521965), wk =   0.0185185
        k(   18) = (   0.0815487  -0.0470821   0.5869941), wk =   0.0185185
        k(   19) = (   0.2446460   0.4237392   0.1173988), wk =   0.0370370
        k(   20) = (   0.2446460   0.4237392   0.3521965), wk =   0.0370370
        k(   21) = (   0.2446460   0.4237392   0.5869941), wk =   0.0370370
        k(   22) = (   0.2446460   0.6120678   0.1173988), wk =   0.0370370
        k(   23) = (   0.2446460   0.6120678   0.3521965), wk =   0.0370370
        k(   24) = (   0.2446460   0.6120678   0.5869941), wk =   0.0370370
        k(   25) = (   0.2446460  -0.3295750   0.1173988), wk =   0.0370370
        k(   26) = (   0.2446460  -0.3295750   0.3521965), wk =   0.0370370
        k(   27) = (   0.2446460  -0.3295750   0.5869941), wk =   0.0370370
        k(   28) = (   0.2446460  -0.1412464   0.1173988), wk =   0.0185185
        k(   29) = (   0.2446460  -0.1412464   0.3521965), wk =   0.0185185
        k(   30) = (   0.2446460  -0.1412464   0.5869941), wk =   0.0185185
        k(   31) = (   0.4077433   0.7062320   0.1173988), wk =   0.0370370
        k(   32) = (   0.4077433   0.7062320   0.3521965), wk =   0.0370370
        k(   33) = (   0.4077433   0.7062320   0.5869941), wk =   0.0370370
        k(   34) = (   0.4077433  -0.2354107   0.1173988), wk =   0.0185185
        k(   35) = (   0.4077433  -0.2354107   0.3521965), wk =   0.0185185
        k(   36) = (   0.4077433  -0.2354107   0.5869941), wk =   0.0185185
        k(   37) = (  -0.0815487  -0.3295750   0.1173988), wk =   0.0370370
        k(   38) = (  -0.0815487  -0.3295750   0.3521965), wk =   0.0370370
        k(   39) = (  -0.0815487  -0.3295750   0.5869941), wk =   0.0370370
        k(   40) = (  -0.0815487  -0.5179035   0.1173988), wk =   0.0370370
        k(   41) = (  -0.0815487  -0.5179035   0.3521965), wk =   0.0370370
        k(   42) = (  -0.0815487  -0.5179035   0.5869941), wk =   0.0370370
        k(   43) = (  -0.0815487   0.4237392   0.1173988), wk =   0.0370370
        k(   44) = (  -0.0815487   0.4237392   0.3521965), wk =   0.0370370
        k(   45) = (  -0.0815487   0.4237392   0.5869941), wk =   0.0370370
        k(   46) = (  -0.0815487   0.2354107   0.1173988), wk =   0.0370370
        k(   47) = (  -0.0815487   0.2354107   0.3521965), wk =   0.0370370
        k(   48) = (  -0.0815487   0.2354107   0.5869941), wk =   0.0370370
        k(   49) = (  -0.0815487   0.0470821   0.1173988), wk =   0.0185185
        k(   50) = (  -0.0815487   0.0470821   0.3521965), wk =   0.0185185
        k(   51) = (  -0.0815487   0.0470821   0.5869941), wk =   0.0185185
        k(   52) = (  -0.2446460  -0.6120678   0.1173988), wk =   0.0370370
        k(   53) = (  -0.2446460  -0.6120678   0.3521965), wk =   0.0370370
        k(   54) = (  -0.2446460  -0.6120678   0.5869941), wk =   0.0370370
        k(   55) = (  -0.2446460   0.3295750   0.1173988), wk =   0.0370370
        k(   56) = (  -0.2446460   0.3295750   0.3521965), wk =   0.0370370
        k(   57) = (  -0.2446460   0.3295750   0.5869941), wk =   0.0370370
        k(   58) = (  -0.2446460   0.1412464   0.1173988), wk =   0.0185185
        k(   59) = (  -0.2446460   0.1412464   0.3521965), wk =   0.0185185
        k(   60) = (  -0.2446460   0.1412464   0.5869941), wk =   0.0185185
        k(   61) = (  -0.4077433   0.2354107   0.1173988), wk =   0.0185185
        k(   62) = (  -0.4077433   0.2354107   0.3521965), wk =   0.0185185
        k(   63) = (  -0.4077433   0.2354107   0.5869941), wk =   0.0185185
     extrapolated charge   24.14421, renormalised to   24.00000

     total cpu time spent up to now is      455.9 secs

     per-process dynamical memory:    16.4 Mb

     Self-consistent Calculation

     iteration #  1     ecut=   100.00 Ry     beta=0.30
     Davidson diagonalization with overlap
     ethr =  1.00E-06,  avg # of iterations =  5.0

     total cpu time spent up to now is      474.4 secs

     total energy              =    -139.46063779 Ry
     Harris-Foulkes estimate   =    -139.44027051 Ry
     estimated scf accuracy    <       0.00299620 Ry

     iteration #  2     ecut=   100.00 Ry     beta=0.30
     Davidson diagonalization with overlap
     ethr =  1.25E-05,  avg # of iterations =  2.0

     total cpu time spent up to now is      485.1 secs

     total energy              =    -139.46166848 Ry
     Harris-Foulkes estimate   =    -139.46172496 Ry
     estimated scf accuracy    <       0.00033759 Ry

     iteration #  3     ecut=   100.00 Ry     beta=0.30
     Davidson diagonalization with overlap
     ethr =  1.41E-06,  avg # of iterations =  1.0

     total cpu time spent up to now is      492.6 secs

     total energy              =    -139.46158314 Ry
     Harris-Foulkes estimate   =    -139.46167586 Ry
     estimated scf accuracy    <       0.00018885 Ry

     iteration #  4     ecut=   100.00 Ry     beta=0.30
     Davidson diagonalization with overlap
     ethr =  7.87E-07,  avg # of iterations =  2.0

     total cpu time spent up to now is      501.5 secs

     total energy              =    -139.46161317 Ry
     Harris-Foulkes estimate   =    -139.46161353 Ry
     estimated scf accuracy    <       0.00000258 Ry

     iteration #  5     ecut=   100.00 Ry     beta=0.30
     Davidson diagonalization with overlap
     ethr =  1.07E-08,  avg # of iterations =  2.0

     total cpu time spent up to now is      510.1 secs

     total energy              =    -139.46161324 Ry
     Harris-Foulkes estimate   =    -139.46161346 Ry
     estimated scf accuracy    <       0.00000130 Ry

     iteration #  6     ecut=   100.00 Ry     beta=0.30
     Davidson diagonalization with overlap
     ethr =  5.41E-09,  avg # of iterations =  1.3

     total cpu time spent up to now is      517.1 secs

     End of self-consistent calculation

          k = 0.0815 0.1412 0.1174 (  2820 PWs)   bands (ev):

   -24.2325  -7.4137  -5.4667  -4.7035  -4.0616  -2.7197   9.4875   9.8854
    10.7016  12.5665  14.5479  15.1096

          k = 0.0815 0.1412 0.3522 (  2812 PWs)   bands (ev):

   -23.8230  -7.2276  -5.6598  -5.1468  -3.8479  -2.1646   7.0153   9.6586
    10.2296  10.9954  13.8735  14.9235

          k = 0.0815 0.1412 0.5870 (  2794 PWs)   bands (ev):

   -23.3648  -8.2861  -5.2121  -4.8134  -3.2582  -1.5214   4.4413   6.9823
    11.3351  12.3596  12.7683  14.0936

          k = 0.0815 0.3296 0.1174 (  2825 PWs)   bands (ev):

   -24.1626  -8.1821  -5.7926  -4.4041  -3.5856  -2.7194   9.8391  10.6227
    11.8236  12.0421  13.8651  15.1582

          k = 0.0815 0.3296 0.3522 (  2820 PWs)   bands (ev):

   -23.7631  -7.4447  -6.0626  -5.3397  -3.4150  -2.1711   7.1611   9.0408
    10.3609  12.1351  14.1119  15.1414

          k = 0.0815 0.3296 0.5870 (  2810 PWs)   bands (ev):

   -23.3174  -7.9211  -5.9425  -4.9452  -3.3637  -1.4547   4.7340   6.3046
    10.9984  12.5311  14.1246  14.5836

          k = 0.0815 0.5179 0.1174 (  2821 PWs)   bands (ev):

   -24.1105  -8.5643  -6.0550  -4.2997  -3.8678  -2.0153  10.0454  11.0655
    11.7065  12.1075  14.2007  15.0639

          k = 0.0815 0.5179 0.3522 (  2819 PWs)   bands (ev):

   -23.7185  -7.6895  -6.0347  -5.5058  -3.5183  -1.9983   7.7126   8.5179
    10.6693  12.3003  14.4619  14.9852

          k = 0.0815 0.5179 0.5870 (  2816 PWs)   bands (ev):

   -23.2823  -7.5960  -6.3701  -5.0537  -3.4275  -1.7354   5.2169   5.9575
    10.9606  13.0811  14.3911  14.5420

          k = 0.0815-0.4237 0.1174 (  2826 PWs)   bands (ev):

   -24.1297  -8.4479  -5.9432  -4.0919  -3.9548  -2.3678  10.2015  11.1067
    11.7753  12.0623  13.8116  14.8029

          k = 0.0815-0.4237 0.3522 (  2823 PWs)   bands (ev):

   -23.7349  -7.6682  -5.8945  -5.4839  -3.2286  -2.4592   7.8255   8.6427
    10.9333  12.3143  13.9225  14.4325

          k = 0.0815-0.4237 0.5870 (  2806 PWs)   bands (ev):

   -23.2952  -7.7514  -6.1823  -5.0134  -3.2237  -1.8953   5.3476   5.8911
    11.2942  12.7902  14.0332  14.3023

          k = 0.0815-0.2354 0.1174 (  2825 PWs)   bands (ev):

   -24.2002  -7.8400  -5.6054  -4.3170  -3.8467  -2.9502   9.7696  10.4995
    10.9692  12.4212  14.1268  14.9198

          k = 0.0815-0.2354 0.3522 (  2814 PWs)   bands (ev):

   -23.7953  -7.3629  -5.8277  -5.2452  -3.3631  -2.4939   7.1951   9.3803
    10.5814  11.4422  13.7251  14.8001

          k = 0.0815-0.2354 0.5870 (  2803 PWs)   bands (ev):

   -23.3429  -8.1346  -5.5738  -4.8743  -3.1707  -1.6245   4.6528   6.6136
    11.5925  12.0559  13.1641  14.4134

          k = 0.0815-0.0471 0.1174 (  2815 PWs)   bands (ev):

   -24.2510  -7.0578  -5.4006  -5.0961  -4.1462  -2.5314   9.3051   9.5188
    10.5659  12.6559  14.8193  15.2038

          k = 0.0815-0.0471 0.3522 (  2817 PWs)   bands (ev):

   -23.8390  -7.1711  -5.4100  -5.1002  -4.2332  -1.9908   6.9614   9.8642
    10.0546  10.6295  14.0820  14.8113

          k = 0.0815-0.0471 0.5870 (  2790 PWs)   bands (ev):

   -23.3774  -8.3698  -4.9480  -4.7823  -3.3400  -1.5147   4.3718   7.2211
    11.3339  12.1774  12.8523  13.7302

          k = 0.2446 0.4237 0.1174 (  2812 PWs)   bands (ev):

   -24.1106  -8.2733  -6.8692  -4.0767  -2.9740  -2.5422   9.4288  11.2415
    11.7203  12.8149  13.5085  15.4932

          k = 0.2446 0.4237 0.3522 (  2817 PWs)   bands (ev):

   -23.7186  -7.4626  -6.2451  -5.8588  -2.7949  -2.3565   7.7482   8.5218
    10.4319  12.7906  13.9513  15.0384

          k = 0.2446 0.4237 0.5870 (  2818 PWs)   bands (ev):

   -23.2824  -7.6172  -6.1394  -5.4225  -3.0586  -2.0123   5.4268   5.8528
[...]
        k(   60) = (  -0.2452435   0.1415914   0.5943553), wk =   0.0185185
        k(   61) = (  -0.4087392   0.2359857   0.1188711), wk =   0.0185185
        k(   62) = (  -0.4087392   0.2359857   0.3566132), wk =   0.0185185
        k(   63) = (  -0.4087392   0.2359857   0.5943553), wk =   0.0185185

     Dense  grid:    15859 G-vectors     FFT dimensions: (  40,  40,  25)

     Largest allocated arrays     est. size (Mb)     dimensions
        Kohn-Sham Wavefunctions         0.51 Mb     (   2774,   12)
        NL pseudopotentials             0.38 Mb     (   2774,    9)
        Each V/rho on FFT grid          0.61 Mb     (  40000)
        Each G-vector array             0.12 Mb     (  15859)
        G-vector shells                 0.01 Mb     (    773)
     Largest temporary arrays     est. size (Mb)     dimensions
        Auxiliary wavefunctions         2.03 Mb     (   2774,   48)
        Each subspace H/S matrix        0.04 Mb     (  48,  48)
        Each <psi_i|beta_j> matrix      0.00 Mb     (      9,   12)
        Arrays for rho mixing           9.77 Mb     (  40000,  16)

     Initial potential from superposition of free atoms

     starting charge   21.99998, renormalised to   24.00000
     Starting wfc are   14 randomized atomic wfcs

     Writing output data file CaOH2_ambient.save

     total cpu time spent up to now is     1582.5 secs

     per-process dynamical memory:    14.4 Mb

     Self-consistent Calculation

     iteration #  1     ecut=   100.00 Ry     beta=0.30
     Davidson diagonalization with overlap
     ethr =  1.00E-06,  avg # of iterations =  5.7

     total cpu time spent up to now is     1600.0 secs

     total energy              =    -139.57280450 Ry
     Harris-Foulkes estimate   =    -139.65817304 Ry
     estimated scf accuracy    <       0.48236321 Ry

     iteration #  2     ecut=   100.00 Ry     beta=0.30
     Davidson diagonalization with overlap
     ethr =  2.01E-03,  avg # of iterations =  1.0

     total cpu time spent up to now is     1606.3 secs

     total energy              =    -139.37792560 Ry
     Harris-Foulkes estimate   =    -139.57698582 Ry
     estimated scf accuracy    <       0.30719111 Ry

     iteration #  3     ecut=   100.00 Ry     beta=0.30
     Davidson diagonalization with overlap
     ethr =  1.28E-03,  avg # of iterations =  2.0

     total cpu time spent up to now is     1614.2 secs

     total energy              =    -139.42818070 Ry
     Harris-Foulkes estimate   =    -139.43620446 Ry
     estimated scf accuracy    <       0.02024829 Ry

     iteration #  4     ecut=   100.00 Ry     beta=0.30
     Davidson diagonalization with overlap
     ethr =  8.44E-05,  avg # of iterations =  2.0

     total cpu time spent up to now is     1621.7 secs

     total energy              =    -139.42961202 Ry
     Harris-Foulkes estimate   =    -139.43326292 Ry
     estimated scf accuracy    <       0.01012047 Ry

     iteration #  5     ecut=   100.00 Ry     beta=0.30
     Davidson diagonalization with overlap
     ethr =  4.22E-05,  avg # of iterations =  1.5

     total cpu time spent up to now is     1627.5 secs

     total energy              =    -139.42871120 Ry
     Harris-Foulkes estimate   =    -139.43022472 Ry
     estimated scf accuracy    <       0.00285763 Ry

     iteration #  6     ecut=   100.00 Ry     beta=0.30
     Davidson diagonalization with overlap
     ethr =  1.19E-05,  avg # of iterations =  2.0

     total cpu time spent up to now is     1634.8 secs

     total energy              =    -139.42948516 Ry
     Harris-Foulkes estimate   =    -139.42952262 Ry
     estimated scf accuracy    <       0.00008143 Ry

     iteration #  7     ecut=   100.00 Ry     beta=0.30
     Davidson diagonalization with overlap
     ethr =  3.39E-07,  avg # of iterations =  2.0

     total cpu time spent up to now is     1642.9 secs

     total energy              =    -139.42950365 Ry
     Harris-Foulkes estimate   =    -139.42950128 Ry
     estimated scf accuracy    <       0.00000552 Ry

     iteration #  8     ecut=   100.00 Ry     beta=0.30
     Davidson diagonalization with overlap
     ethr =  2.30E-08,  avg # of iterations =  2.0

     total cpu time spent up to now is     1650.1 secs

     total energy              =    -139.42950322 Ry
     Harris-Foulkes estimate   =    -139.42950434 Ry
     estimated scf accuracy    <       0.00000215 Ry

     iteration #  9     ecut=   100.00 Ry     beta=0.30
     Davidson diagonalization with overlap
     ethr =  8.96E-09,  avg # of iterations =  2.0

     total cpu time spent up to now is     1657.3 secs

     total energy              =    -139.42950372 Ry
     Harris-Foulkes estimate   =    -139.42950368 Ry
     estimated scf accuracy    <       0.00000004 Ry

     iteration # 10     ecut=   100.00 Ry     beta=0.30
     Davidson diagonalization with overlap
     ethr =  1.48E-10,  avg # of iterations =  3.0

     total cpu time spent up to now is     1666.7 secs

     total energy              =    -139.42950367 Ry
     Harris-Foulkes estimate   =    -139.42950373 Ry
     estimated scf accuracy    <       0.00000012 Ry

     iteration # 11     ecut=   100.00 Ry     beta=0.30
     Davidson diagonalization with overlap
     ethr =  1.48E-10,  avg # of iterations =  3.0

     total cpu time spent up to now is     1675.4 secs

     End of self-consistent calculation

          k = 0.0817 0.1416 0.1189 (  2771 PWs)   bands (ev):

   -24.0063  -7.1744  -5.2202  -4.3980  -3.6648  -2.3566   9.7124  10.1558
    11.2775  13.1202  14.9314  15.4945

          k = 0.0817 0.1416 0.3566 (  2768 PWs)   bands (ev):

   -23.5589  -6.9504  -5.3792  -4.8743  -3.5189  -1.7124   7.3101  10.0322
    10.4798  11.2383  14.2454  15.3152

          k = 0.0817 0.1416 0.5944 (  2757 PWs)   bands (ev):

   -23.0533  -8.1032  -4.9005  -4.5099  -2.8422  -0.9247   4.5149   7.1154
    11.6080  12.5576  13.2190  14.4930

          k = 0.0817 0.3304 0.1189 (  2759 PWs)   bands (ev):

   -23.9336  -7.9685  -5.5472  -4.0243  -3.2278  -2.3793  10.0988  11.0560
    12.2326  12.6035  14.2662  15.5582

          k = 0.0817 0.3304 0.3566 (  2761 PWs)   bands (ev):

   -23.4966  -7.1928  -5.7716  -5.0701  -3.0292  -1.7796   7.4658   9.3958
    10.6003  12.4034  14.5085  15.5790

          k = 0.0817 0.3304 0.5944 (  2771 PWs)   bands (ev):

   -23.0045  -7.7480  -5.6266  -4.6386  -2.9117  -0.9316   4.8298   6.4368
    11.2192  12.7780  14.5907  15.0494

          k = 0.0817 0.5192 0.1189 (  2748 PWs)   bands (ev):

   -23.8793  -8.3613  -5.8129  -3.9496  -3.4880  -1.6532  10.3184  11.4514
    12.2418  12.5959  14.6161  15.4800

          k = 0.0817 0.5192 0.3566 (  2761 PWs)   bands (ev):

   -23.4502  -7.4441  -5.7558  -5.2344  -3.1171  -1.6147   8.0287   8.8484
    10.8959  12.6023  14.8679  15.4425

          k = 0.0817 0.5192 0.5944 (  2774 PWs)   bands (ev):

   -22.9683  -7.4345  -6.0554  -4.7425  -2.9451  -1.2773   5.3458   6.0766
    11.1491  13.3929  14.8216  15.0529

          k = 0.0817-0.4248 0.1189 (  2756 PWs)   bands (ev):

   -23.8992  -8.2397  -5.7021  -3.7008  -3.6175  -2.0089  10.4472  11.5710
    12.2134  12.5877  14.2234  15.2093

          k = 0.0817-0.4248 0.3566 (  2763 PWs)   bands (ev):

   -23.4673  -7.4137  -5.6259  -5.2107  -2.8249  -2.0757   8.1110   9.0081
    11.1549  12.5947  14.3412  14.8696

          k = 0.0817-0.4248 0.5944 (  2769 PWs)   bands (ev):

   -22.9816  -7.5790  -5.8749  -4.7046  -2.7465  -1.4248   5.4661   6.0190
    11.4719  13.0802  14.5406  14.7421

          k = 0.0817-0.2360 0.1189 (  2771 PWs)   bands (ev):

   -23.9728  -7.6138  -5.3606  -3.9412  -3.5079  -2.5931  10.0043  10.8396
    11.4888  12.9747  14.5150  15.3097

          k = 0.0817-0.2360 0.3566 (  2762 PWs)   bands (ev):

   -23.5301  -7.0941  -5.5492  -4.9741  -3.0209  -2.0549   7.4894   9.7566
    10.8251  11.6851  14.1175  15.2059

          k = 0.0817-0.2360 0.5944 (  2768 PWs)   bands (ev):

   -23.0307  -7.9540  -5.2613  -4.5698  -2.7419  -1.0626   4.7381   6.7502
    11.8340  12.2691  13.6274  14.8473

          k = 0.0817-0.0472 0.1189 (  2774 PWs)   bands (ev):

   -24.0256  -6.8047  -5.1536  -4.8245  -3.7305  -2.1607   9.5262   9.7561
    11.1625  13.2103  15.1997  15.5860

          k = 0.0817-0.0472 0.3566 (  2771 PWs)   bands (ev):

   -23.5754  -6.8880  -5.1297  -4.8267  -3.9138  -1.5270   7.2547  10.2291
    10.3082  10.8793  14.4455  15.1896

          k = 0.0817-0.0472 0.5944 (  2753 PWs)   bands (ev):

   -23.0662  -8.1854  -4.6403  -4.4790  -2.9290  -0.9006   4.4419   7.3485
    11.6291  12.4784  13.1959  14.0939

          k = 0.2452 0.4248 0.1189 (  2745 PWs)   bands (ev):

   -23.8795  -8.0642  -6.6393  -3.6667  -2.6277  -2.1956   9.6705  11.7466
    12.2267  13.2314  13.9271  15.9178

          k = 0.2452 0.4248 0.3566 (  2771 PWs)   bands (ev):

   -23.4504  -7.2108  -5.9704  -5.5891  -2.3840  -1.9762   8.0413   8.8518
    10.6746  13.1030  14.3292  15.5069

          k = 0.2452 0.4248 0.5944 (  2763 PWs)   bands (ev):

   -22.9683  -7.4537  -5.8216  -5.1017  -2.6059  -1.5402   5.5411   5.9764
    11.7981  12.9408  14.5802  14.7975

          k = 0.2452 0.6136 0.1189 (  2741 PWs)   bands (ev):

   -23.8649  -7.9669  -7.0302  -3.6387  -2.5434  -1.9835   9.4624  11.8173
    12.1102  13.4850  14.0085  16.1279

          k = 0.2452 0.6136 0.3566 (  2762 PWs)   bands (ev):

   -23.4379  -7.1041  -6.2748  -5.5939  -2.2747  -1.9327   8.3377   8.5989
    10.5065  13.4411  14.1409  15.6572

          k = 0.2452 0.6136 0.5944 (  2763 PWs)   bands (ev):

   -22.9586  -7.3637  -5.8118  -5.2971  -2.4337  -1.7991   5.7964   5.8300
    11.8462  13.3815  14.2624  14.6831

          k = 0.2452-0.3304 0.1189 (  2762 PWs)   bands (ev):

   -23.9047  -8.0785  -6.0893  -3.7672  -2.9401  -2.3246   9.9242  11.5386
    12.3269  12.7650  14.0371  15.6841

          k = 0.2452-0.3304 0.3566 (  2766 PWs)   bands (ev):

   -23.4719  -7.2473  -5.7802  -5.3940  -2.7074  -1.8809   7.7163   9.1339
    10.7447  12.6782  14.5504  15.4362

          k = 0.2452-0.3304 0.5944 (  2765 PWs)   bands (ev):

   -22.9851  -7.5957  -5.7663  -4.8467  -2.7921  -1.2023   5.1664   6.1969
    11.5205  12.7521  14.6941  15.0000

          k = 0.2452-0.1416 0.1189 (  2763 PWs)   bands (ev):

   -23.9584  -7.7729  -5.2718  -4.2305  -3.3213  -2.4626  10.0626  10.6919
    11.9510  12.7319  14.4215  15.5758

          k = 0.2452-0.1416 0.3566 (  2757 PWs)   bands (ev):

   -23.5178  -7.0994  -5.7375  -4.9222  -3.1859  -1.7499   7.3374   9.6064
    10.4429  12.1937  14.3487  15.6572

          k = 0.2452-0.1416 0.5944 (  2766 PWs)   bands (ev):

   -23.0211  -7.8743  -5.4326  -4.5502  -2.9279  -0.8221   4.6410   6.6452
    11.1506  12.7762  14.3256  14.9145

          k = 0.4087 0.7080 0.1189 (  2737 PWs)   bands (ev):

   -23.8701  -8.2137  -6.4865  -3.6653  -3.0978  -1.7531   9.8038  11.7300
    12.1983  13.0011  14.2910  15.8586

          k = 0.4087 0.7080 0.3566 (  2762 PWs)   bands (ev):

   -23.4424  -7.3179  -5.9005  -5.5430  -2.6760  -1.7534   8.2590   8.6608
    10.7293  13.0057  14.4609  15.5554

          k = 0.4087 0.7080 0.5944 (  2768 PWs)   bands (ev):

   -22.9622  -7.3897  -5.9679  -5.0167  -2.6902  -1.5494   5.5919   5.9552
    11.5227  13.4072  14.5257  14.8204

          k = 0.4087-0.2360 0.1189 (  2747 PWs)   bands (ev):

   -23.8899  -8.3559  -5.3878  -4.3125  -3.5048  -1.7050  10.7690  10.9203
    12.2347  12.5499  14.8067  15.2487

          k = 0.4087-0.2360 0.3566 (  2767 PWs)   bands (ev):

   -23.4594  -7.4394  -5.7703  -5.0195  -3.3089  -1.5611   7.8186   8.9998
    10.8491  12.4792  15.0672  15.4387

          k = 0.4087-0.2360 0.5944 (  2772 PWs)   bands (ev):

   -22.9754  -7.4932  -6.0300  -4.6224  -3.0495  -1.1017   5.1570   6.1673
    10.9925  13.2898  14.9505  15.1960

          k =-0.0817-0.3304 0.1189 (  2759 PWs)   bands (ev):

   -23.9335  -7.9838  -5.5363  -3.7520  -3.4565  -2.4557  10.2854  11.4139
    11.8529  12.7896  14.1539  15.1956

          k =-0.0817-0.3304 0.3566 (  2761 PWs)   bands (ev):

   -23.4966  -7.2726  -5.6062  -5.0995  -2.6045  -2.3780   7.7787   9.4005
    11.1059  12.1937  14.1718  14.9298

          k =-0.0817-0.3304 0.5944 (  2771 PWs)   bands (ev):

   -23.0045  -7.7656  -5.6053  -4.6408  -2.7007  -1.2724   5.0968   6.3548
    11.7583  12.4819  14.1116  14.9181

          k =-0.0817-0.5192 0.1189 (  2748 PWs)   bands (ev):

   -23.8793  -8.3666  -5.8069  -3.8476  -3.5740  -1.6878  10.4204  11.5372
    12.3888  12.4317  14.5074  15.3594

          k =-0.0817-0.5192 0.3566 (  2761 PWs)   bands (ev):

   -23.4502  -7.4741  -5.6785  -5.2573  -3.0378  -1.7709   8.2988   8.7225
    11.0448  12.6666  14.5978  15.1682

          k =-0.0817-0.5192 0.5944 (  2774 PWs)   bands (ev):

   -22.9683  -7.4486  -6.0375  -4.7428  -2.8550  -1.4208   5.5476   5.9484
    11.2608  13.5018  14.5936  14.8812

          k =-0.0817 0.4248 0.1189 (  2756 PWs)   bands (ev):

   -23.8992  -8.2263  -5.7154  -3.9957  -3.3659  -1.9251  10.2342  11.2900
    12.2318  12.6645  14.4431  15.5217

          k =-0.0817 0.4248 0.3566 (  2763 PWs)   bands (ev):

   -23.4673  -7.3388  -5.8017  -5.1671  -3.0856  -1.6351   7.6944   9.0912
    10.7459  12.5534  14.8565  15.5575

          k =-0.0817 0.4248 0.5944 (  2769 PWs)   bands (ev):

   -22.9816  -7.5531  -5.9079  -4.7034  -2.9616  -1.0804   5.0950   6.2100
    11.1377  13.0762  14.9036  15.1244

          k =-0.0817 0.2360 0.1189 (  2771 PWs)   bands (ev):

   -23.9728  -7.6040  -5.3639  -4.1026  -3.3594  -2.5692   9.8965  10.7123
    11.6798  12.8794  14.4680  15.5554

          k =-0.0817 0.2360 0.3566 (  2762 PWs)   bands (ev):

   -23.5301  -7.0520  -5.6317  -4.9631  -3.1435  -1.8461   7.3546   9.7400
    10.4922  11.9447  14.2159  15.4955

          k =-0.0817 0.2360 0.5944 (  2768 PWs)   bands (ev):

   -23.0307  -7.9479  -5.2669  -4.5675  -2.8477  -0.8934   4.6271   6.7663
    11.3825  12.5981  13.9403  14.8204

          k =-0.0817 0.0472 0.1189 (  2774 PWs)   bands (ev):

   -24.0256  -6.8087  -5.1557  -4.8031  -3.7445  -2.1648   9.6193   9.6820
    11.1488  13.2214  15.3434  15.4158

          k =-0.0817 0.0472 0.3566 (  2771 PWs)   bands (ev):

   -23.5754  -6.8949  -5.1100  -4.8315  -3.9096  -1.5488   7.2762  10.1852
    10.5922  10.6453  14.4520  15.1323

          k =-0.0817 0.0472 0.5944 (  2753 PWs)   bands (ev):

   -23.0662  -8.1861  -4.6394  -4.4817  -2.9094  -0.9289   4.4579   7.3487
    11.7812  12.3496  13.0955  14.1468

          k =-0.2452-0.6136 0.1189 (  2741 PWs)   bands (ev):

   -23.8649  -7.9648  -7.0327  -3.6428  -2.5494  -1.9700   9.4490  11.8435
    12.0674  13.4684  14.0449  16.1480

          k =-0.2452-0.6136 0.3566 (  2762 PWs)   bands (ev):

   -23.4379  -7.0917  -6.2963  -5.5876  -2.3294  -1.8667   8.2580   8.6552
    10.4947  13.3730  14.2311  15.6995

          k =-0.2452-0.6136 0.5944 (  2763 PWs)   bands (ev):

   -22.9586  -7.3613  -5.8164  -5.2959  -2.4654  -1.7594   5.6944   5.9214
    11.8164  13.3566  14.3574  14.6688

          k =-0.2452 0.3304 0.1189 (  2762 PWs)   bands (ev):

   -23.9047  -8.0857  -6.0799  -3.7042  -2.9639  -2.3836  10.0099  11.6055
    12.4926  12.6377  13.9196  15.5518

          k =-0.2452 0.3304 0.3566 (  2766 PWs)   bands (ev):

   -23.4719  -7.2868  -5.6332  -5.4789  -2.4088  -2.2560   7.8877   9.1080
    10.9048  12.7216  14.3178  15.1405

          k =-0.2452 0.3304 0.5944 (  2765 PWs)   bands (ev):

   -22.9851  -7.6062  -5.7521  -4.8468  -2.6902  -1.3617   5.3162   6.1255
    11.7712  12.6164  14.5403  14.8665

          k =-0.2452 0.1416 0.1189 (  2763 PWs)   bands (ev):

   -23.9584  -7.7918  -5.2759  -3.8340  -3.6707  -2.5265  10.2969  11.0448
    11.4782  12.9564  14.4946  15.0293

          k =-0.2452 0.1416 0.3566 (  2757 PWs)   bands (ev):

   -23.5178  -7.1900  -5.5718  -4.9314  -2.8643  -2.2660   7.6527   9.6389
    11.2085  11.6446  14.0725  14.9831

          k =-0.2452 0.1416 0.5944 (  2766 PWs)   bands (ev):

   -23.0211  -7.8899  -5.4161  -4.5554  -2.6914  -1.2022   4.9056   6.5927
    11.8848  12.3381  13.6512  14.9083

          k =-0.4087 0.2360 0.1189 (  2747 PWs)   bands (ev):

   -23.8899  -8.3668  -5.3897  -4.1309  -3.6421  -1.7743  10.9260  11.3073
    12.0515  12.5451  14.6475  14.9284

          k =-0.4087 0.2360 0.3566 (  2767 PWs)   bands (ev):

   -23.4593  -7.5003  -5.6473  -5.0239  -3.1544  -1.8862   8.2625   8.8648
    11.2461  12.5002  14.6232  14.7583

          k =-0.4087 0.2360 0.5944 (  2772 PWs)   bands (ev):

   -22.9754  -7.5203  -5.9964  -4.6250  -2.8632  -1.4045   5.5400   5.9489
    11.2291  13.4558  14.6526  14.7031

!    total energy              =    -139.42950370 Ry
     Harris-Foulkes estimate   =    -139.42950370 Ry
     estimated scf accuracy    <          1.9E-10 Ry

     The total energy is the sum of the following terms:

     one-electron contribution =       0.83011410 Ry
     hartree contribution      =      18.96887005 Ry
     xc contribution           =     -27.06178554 Ry
     ewald contribution        =    -132.16670230 Ry

     convergence has been achieved in  11 iterations

     Forces acting on atoms (Ry/au):

     atom    1 type  3   force =     0.00000000    0.00000000   -0.00004822
     atom    2 type  2   force =    -0.00000000   -0.00000000    0.00002939
     atom    3 type  2   force =    -0.00000000   -0.00000000    0.00002144
     atom    4 type  1   force =     0.00000000    0.00000000   -0.00007344
     atom    5 type  1   force =    -0.00000000   -0.00000000    0.00007083

     Total force =     0.000119     Total SCF correction =     0.000042
     SCF correction compared to forces is large: reduce conv_thr to get better values


     entering subroutine stress ...

          total   stress  (Ry/bohr**3)                   (kbar)     P= 1800.35
   0.01225208  -0.00000000   0.00000000       1802.34     -0.00      0.00
  -0.00000000   0.01225208   0.00000000         -0.00   1802.34      0.00
   0.00000000  -0.00000000   0.01221152          0.00     -0.00   1796.38


     Writing output data file CaOH2_ambient.save

     init_run     :     33.83s CPU     36.71s WALL (       2 calls)
     electrons    :    857.43s CPU    911.78s WALL (      13 calls)
     update_pot   :    310.58s CPU    330.64s WALL (      11 calls)
     forces       :    119.00s CPU    123.26s WALL (      13 calls)
     stress       :    266.30s CPU    275.75s WALL (      13 calls)

     Called by init_run:
     wfcinit      :      7.87s CPU      8.46s WALL (       2 calls)
     potinit      :      9.95s CPU     10.56s WALL (       2 calls)

     Called by electrons:
     c_bands      :    732.79s CPU    778.35s WALL (      96 calls)
     sum_band     :    111.96s CPU    119.89s WALL (      96 calls)
     v_of_rho     :      7.49s CPU      7.91s WALL (     107 calls)
     mix_rho      :      5.74s CPU      6.09s WALL (      96 calls)

     Called by c_bands:
     init_us_2    :     27.18s CPU     31.44s WALL (   13860 calls)
     cegterg      :    717.34s CPU    753.49s WALL (    6048 calls)

     Called by *egterg:
     h_psi        :    543.54s CPU    570.25s WALL (   18832 calls)
     g_psi        :      5.58s CPU      5.95s WALL (   12658 calls)
     cdiaghg      :      9.14s CPU      9.59s WALL (   17887 calls)

     Called by h_psi:
     add_vuspsi   :     15.88s CPU     16.70s WALL (   18832 calls)

     General routines
     calbec       :     17.89s CPU     18.81s WALL (   20470 calls)
     fft          :      2.12s CPU      2.21s WALL (    1283 calls)
     ffts         :      2.53s CPU      2.61s WALL (    1539 calls)
     fftw         :    530.03s CPU    556.10s WALL (  470024 calls)
     davcio       :      4.14s CPU     12.14s WALL (   19908 calls)


     PWSCF        : 26m29.38s CPU    28m 0.65s WALL


   This run was terminated on:  15: 8:22  19Apr2014            

=------------------------------------------------------------------------------=
   JOB DONE.
=------------------------------------------------------------------------------=
