
     Program PWSCF v.5.0.2 (svn rev. 9392) starts on 20Apr2014 at  0:28:46 

     This program is part of the open-source Quantum ESPRESSO suite
     for quantum simulation of materials; please cite
         "P. Giannozzi et al., J. Phys.:Condens. Matter 21 395502 (2009);
          URL http://www.quantum-espresso.org", 
     in publications or presentations arising from this work. More details at
     http://www.quantum-espresso.org/quote.php

     Serial version

     Current dimensions of program PWSCF are:
     Max number of different atomic species (ntypx) = 10
     Max number of k-points (npk) =  40000
     Max angular momentum in pseudopotentials (lmaxx) =  3
     Waiting for input...
     Reading input from standard input

     G-vector sticks info
     --------------------
     sticks:   dense  smooth     PW     G-vecs:    dense   smooth      PW
     Sum         913     913    337                26035    26035    5883



     bravais-lattice index     =            4
     lattice parameter (alat)  =       6.3764  a.u.
     unit-cell volume          =     269.4254 (a.u.)^3
     number of atoms/cell      =            5
     number of atomic types    =            3
     number of electrons       =        24.00
     number of Kohn-Sham states=           12
     kinetic-energy cutoff     =     100.0000  Ry
     charge density cutoff     =     320.0000  Ry
     convergence threshold     =      1.0E-06
     mixing beta               =       0.3000
     number of iterations used =           16  local-TF  mixing
     Exchange-correlation      = PBE ( 1 4 3 4 0)
     EXX-fraction              =        0.00
     nstep                     =           50


     celldm(1)=   6.376400  celldm(2)=   0.000000  celldm(3)=   1.200000
     celldm(4)=   0.000000  celldm(5)=   0.000000  celldm(6)=   0.000000

     crystal axes: (cart. coord. in units of alat)
               a(1) = (   1.000000   0.000000   0.000000 )  
               a(2) = (  -0.500000   0.866025   0.000000 )  
               a(3) = (   0.000000   0.000000   1.200000 )  

     reciprocal axes: (cart. coord. in units 2 pi/alat)
               b(1) = (  1.000000  0.577350 -0.000000 )  
               b(2) = (  0.000000  1.154701  0.000000 )  
               b(3) = (  0.000000 -0.000000  0.833333 )  


     PseudoPot. # 1 for H  read from file:
     /home/ilia/espresso/pseudo/H.pbe-sp-mt.ncpp
     MD5 check sum: 7a641936b52ccecd26bd1ad87cca5aed
     Pseudo is Norm-conserving, Zval =  1.0
     Generated by old ld1 code (numerical format)
     Using radial grid of 1076 points,  0 beta functions with: 

     PseudoPot. # 2 for O  read from file:
     /home/ilia/espresso/pseudo/O.pbe-sp-mt.ncpp
     MD5 check sum: 8a3d23d410d2f3ebfd0a39faacc72cbb
     Pseudo is Norm-conserving, Zval =  6.0
     Generated by old ld1 code (numerical format)
     Using radial grid of 1130 points,  1 beta functions with: 
                l(1) =   1

     PseudoPot. # 3 for Ca read from file:
     /home/ilia/espresso/pseudo/Ca.pbe-sp-mt_ion2.ncpp
     MD5 check sum: 4bcd670d05521f7b178fdf0a334578ab
     Pseudo is Norm-conserving, Zval = 10.0
     Generated by old ld1 code (numerical format)
     Using radial grid of 1153 points,  1 beta functions with: 
                l(1) =   1

     atomic species   valence    mass     pseudopotential
        H              1.00     1.00700     H ( 1.00)
        O              6.00    16.00000     O ( 1.00)
        Ca            10.00    40.07800     Ca( 1.00)

      6 Sym. Ops. (no inversion) found



   Cartesian axes

     site n.     atom                  positions (alat units)
         1           Ca  tau(   1) = (   0.0000000   0.0000000   0.0000000  )
         2           O   tau(   2) = (   0.0000000   0.5773503   0.3444000  )
         3           O   tau(   3) = (   0.5000000   0.2886751   0.8544000  )
         4           H   tau(   4) = (   0.0000000   0.5773503   0.8088000  )
         5           H   tau(   5) = (   0.5000000   0.2886751   0.3900000  )

     number of k points=    63
                       cart. coord. in units 2pi/alat
        k(    1) = (   0.0833333   0.1443376   0.0694444), wk =   0.0370370
        k(    2) = (   0.0833333   0.1443376   0.2083333), wk =   0.0370370
        k(    3) = (   0.0833333   0.1443376   0.3472222), wk =   0.0370370
        k(    4) = (   0.0833333   0.3367877   0.0694444), wk =   0.0370370
        k(    5) = (   0.0833333   0.3367877   0.2083333), wk =   0.0370370
        k(    6) = (   0.0833333   0.3367877   0.3472222), wk =   0.0370370
        k(    7) = (   0.0833333   0.5292377   0.0694444), wk =   0.0370370
        k(    8) = (   0.0833333   0.5292377   0.2083333), wk =   0.0370370
        k(    9) = (   0.0833333   0.5292377   0.3472222), wk =   0.0370370
        k(   10) = (   0.0833333  -0.4330127   0.0694444), wk =   0.0370370
        k(   11) = (   0.0833333  -0.4330127   0.2083333), wk =   0.0370370
        k(   12) = (   0.0833333  -0.4330127   0.3472222), wk =   0.0370370
        k(   13) = (   0.0833333  -0.2405626   0.0694444), wk =   0.0370370
        k(   14) = (   0.0833333  -0.2405626   0.2083333), wk =   0.0370370
        k(   15) = (   0.0833333  -0.2405626   0.3472222), wk =   0.0370370
        k(   16) = (   0.0833333  -0.0481125   0.0694444), wk =   0.0185185
        k(   17) = (   0.0833333  -0.0481125   0.2083333), wk =   0.0185185
        k(   18) = (   0.0833333  -0.0481125   0.3472222), wk =   0.0185185
        k(   19) = (   0.2500000   0.4330127   0.0694444), wk =   0.0370370
        k(   20) = (   0.2500000   0.4330127   0.2083333), wk =   0.0370370
        k(   21) = (   0.2500000   0.4330127   0.3472222), wk =   0.0370370
        k(   22) = (   0.2500000   0.6254628   0.0694444), wk =   0.0370370
        k(   23) = (   0.2500000   0.6254628   0.2083333), wk =   0.0370370
        k(   24) = (   0.2500000   0.6254628   0.3472222), wk =   0.0370370
        k(   25) = (   0.2500000  -0.3367877   0.0694444), wk =   0.0370370
        k(   26) = (   0.2500000  -0.3367877   0.2083333), wk =   0.0370370
        k(   27) = (   0.2500000  -0.3367877   0.3472222), wk =   0.0370370
        k(   28) = (   0.2500000  -0.1443376   0.0694444), wk =   0.0185185
        k(   29) = (   0.2500000  -0.1443376   0.2083333), wk =   0.0185185
        k(   30) = (   0.2500000  -0.1443376   0.3472222), wk =   0.0185185
        k(   31) = (   0.4166667   0.7216878   0.0694444), wk =   0.0370370
        k(   32) = (   0.4166667   0.7216878   0.2083333), wk =   0.0370370
        k(   33) = (   0.4166667   0.7216878   0.3472222), wk =   0.0370370
        k(   34) = (   0.4166667  -0.2405626   0.0694444), wk =   0.0185185
        k(   35) = (   0.4166667  -0.2405626   0.2083333), wk =   0.0185185
        k(   36) = (   0.4166667  -0.2405626   0.3472222), wk =   0.0185185
        k(   37) = (  -0.0833333  -0.3367877   0.0694444), wk =   0.0370370
        k(   38) = (  -0.0833333  -0.3367877   0.2083333), wk =   0.0370370
        k(   39) = (  -0.0833333  -0.3367877   0.3472222), wk =   0.0370370
        k(   40) = (  -0.0833333  -0.5292377   0.0694444), wk =   0.0370370
        k(   41) = (  -0.0833333  -0.5292377   0.2083333), wk =   0.0370370
        k(   42) = (  -0.0833333  -0.5292377   0.3472222), wk =   0.0370370
        k(   43) = (  -0.0833333   0.4330127   0.0694444), wk =   0.0370370
        k(   44) = (  -0.0833333   0.4330127   0.2083333), wk =   0.0370370
        k(   45) = (  -0.0833333   0.4330127   0.3472222), wk =   0.0370370
        k(   46) = (  -0.0833333   0.2405626   0.0694444), wk =   0.0370370
        k(   47) = (  -0.0833333   0.2405626   0.2083333), wk =   0.0370370
        k(   48) = (  -0.0833333   0.2405626   0.3472222), wk =   0.0370370
        k(   49) = (  -0.0833333   0.0481125   0.0694444), wk =   0.0185185
        k(   50) = (  -0.0833333   0.0481125   0.2083333), wk =   0.0185185
        k(   51) = (  -0.0833333   0.0481125   0.3472222), wk =   0.0185185
        k(   52) = (  -0.2500000  -0.6254628   0.0694444), wk =   0.0370370
        k(   53) = (  -0.2500000  -0.6254628   0.2083333), wk =   0.0370370
        k(   54) = (  -0.2500000  -0.6254628   0.3472222), wk =   0.0370370
        k(   55) = (  -0.2500000   0.3367877   0.0694444), wk =   0.0370370
        k(   56) = (  -0.2500000   0.3367877   0.2083333), wk =   0.0370370
        k(   57) = (  -0.2500000   0.3367877   0.3472222), wk =   0.0370370
        k(   58) = (  -0.2500000   0.1443376   0.0694444), wk =   0.0185185
        k(   59) = (  -0.2500000   0.1443376   0.2083333), wk =   0.0185185
        k(   60) = (  -0.2500000   0.1443376   0.3472222), wk =   0.0185185
        k(   61) = (  -0.4166667   0.2405626   0.0694444), wk =   0.0185185
        k(   62) = (  -0.4166667   0.2405626   0.2083333), wk =   0.0185185
        k(   63) = (  -0.4166667   0.2405626   0.3472222), wk =   0.0185185

     Dense  grid:    26035 G-vectors     FFT dimensions: (  40,  40,  45)

     Largest allocated arrays     est. size (Mb)     dimensions
        Kohn-Sham Wavefunctions         0.84 Mb     (   4568,   12)
        NL pseudopotentials             0.63 Mb     (   4568,    9)
        Each V/rho on FFT grid          1.10 Mb     (  72000)
        Each G-vector array             0.20 Mb     (  26035)
        G-vector shells                 0.20 Mb     (  26035)
     Largest temporary arrays     est. size (Mb)     dimensions
        Auxiliary wavefunctions         3.35 Mb     (   4568,   48)
        Each subspace H/S matrix        0.04 Mb     (  48,  48)
        Each <psi_i|beta_j> matrix      0.00 Mb     (      9,   12)
        Arrays for rho mixing          17.58 Mb     (  72000,  16)

     Initial potential from superposition of free atoms

     starting charge   21.99998, renormalised to   24.00000
     Starting wfc are   14 randomized atomic wfcs

     total cpu time spent up to now is       41.7 secs

     per-process dynamical memory:    16.1 Mb

     Self-consistent Calculation

     iteration #  1     ecut=   100.00 Ry     beta=0.30
     Davidson diagonalization with overlap
     ethr =  1.00E-02,  avg # of iterations =  2.0

     total cpu time spent up to now is       62.1 secs

     total energy              =    -139.77634174 Ry
     Harris-Foulkes estimate   =    -139.85804412 Ry
     estimated scf accuracy    <       0.41024085 Ry

     iteration #  2     ecut=   100.00 Ry     beta=0.30
     Davidson diagonalization with overlap
     ethr =  1.71E-03,  avg # of iterations =  1.0

     total cpu time spent up to now is       76.5 secs

     total energy              =    -139.63487091 Ry
     Harris-Foulkes estimate   =    -139.78381823 Ry
     estimated scf accuracy    <       0.24598472 Ry

     iteration #  3     ecut=   100.00 Ry     beta=0.30
     Davidson diagonalization with overlap
     ethr =  1.02E-03,  avg # of iterations =  2.0

     total cpu time spent up to now is       94.7 secs

     total energy              =    -139.66005940 Ry
     Harris-Foulkes estimate   =    -139.67208858 Ry
     estimated scf accuracy    <       0.02531608 Ry

     iteration #  4     ecut=   100.00 Ry     beta=0.30
     Davidson diagonalization with overlap
     ethr =  1.05E-04,  avg # of iterations =  2.6

     total cpu time spent up to now is      113.9 secs

     total energy              =    -139.66468097 Ry
     Harris-Foulkes estimate   =    -139.66513041 Ry
     estimated scf accuracy    <       0.00279394 Ry

     iteration #  5     ecut=   100.00 Ry     beta=0.30
     Davidson diagonalization with overlap
     ethr =  1.16E-05,  avg # of iterations =  1.4

     total cpu time spent up to now is      128.7 secs

     total energy              =    -139.66423540 Ry
     Harris-Foulkes estimate   =    -139.66480842 Ry
     estimated scf accuracy    <       0.00166243 Ry

     iteration #  6     ecut=   100.00 Ry     beta=0.30
     Davidson diagonalization with overlap
     ethr =  6.93E-06,  avg # of iterations =  2.3

     total cpu time spent up to now is      146.2 secs

     total energy              =    -139.66440168 Ry
     Harris-Foulkes estimate   =    -139.66443825 Ry
     estimated scf accuracy    <       0.00010275 Ry

     iteration #  7     ecut=   100.00 Ry     beta=0.30
     Davidson diagonalization with overlap
     ethr =  4.28E-07,  avg # of iterations =  3.0

     total cpu time spent up to now is      166.2 secs

     total energy              =    -139.66443076 Ry
     Harris-Foulkes estimate   =    -139.66442904 Ry
     estimated scf accuracy    <       0.00001136 Ry

     iteration #  8     ecut=   100.00 Ry     beta=0.30
     Davidson diagonalization with overlap
     ethr =  4.74E-08,  avg # of iterations =  3.0

     total cpu time spent up to now is      186.9 secs

     total energy              =    -139.66443154 Ry
     Harris-Foulkes estimate   =    -139.66443566 Ry
     estimated scf accuracy    <       0.00001227 Ry

     iteration #  9     ecut=   100.00 Ry     beta=0.30
     Davidson diagonalization with overlap
     ethr =  4.74E-08,  avg # of iterations =  2.2

     total cpu time spent up to now is      204.6 secs

     End of self-consistent calculation

          k = 0.0833 0.1443 0.0694 (  4531 PWs)   bands (ev):

   -30.6285 -12.5270 -12.2661 -11.9733  -9.7029  -7.7872   3.1512   4.3234
     5.1207   5.6082   6.3512   6.7386

          k = 0.0833 0.1443 0.2083 (  4541 PWs)   bands (ev):

   -30.6263 -12.6738 -12.2191 -11.9706  -9.4047  -7.9853   2.8059   3.8746
     5.2115   5.7011   6.3846   6.7923

          k = 0.0833 0.1443 0.3472 (  4548 PWs)   bands (ev):

   -30.6241 -12.7900 -12.1934 -11.9678  -8.9788  -8.3217   2.7602   3.1581
     5.5089   5.9285   6.2047   6.6346

          k = 0.0833 0.3368 0.0694 (  4545 PWs)   bands (ev):

   -30.5845 -12.8141 -12.3257 -12.0637  -9.0859  -8.0574   2.9674   3.0700
     5.0117   5.7206   6.2936   6.7136

          k = 0.0833 0.3368 0.2083 (  4549 PWs)   bands (ev):

   -30.5827 -12.7496 -12.4129 -12.0598  -9.1353  -7.9584   2.2770   2.7477
     5.0082   6.2525   6.6569   6.7307

          k = 0.0833 0.3368 0.3472 (  4546 PWs)   bands (ev):

   -30.5808 -12.7007 -12.4842 -12.0565  -9.0814  -7.9923   2.0170   2.3833
     5.1104   6.3459   6.6439   6.9178

          k = 0.0833 0.5292 0.0694 (  4557 PWs)   bands (ev):

   -30.5520 -13.1266 -12.1654 -12.1208  -8.8172  -8.1666   2.2092   2.9822
     5.0207   5.9845   6.1338   6.5307

          k = 0.0833 0.5292 0.2083 (  4553 PWs)   bands (ev):

   -30.5504 -13.0690 -12.1865 -12.1311  -9.0356  -7.9765   1.8888   2.4821
     4.9698   6.2179   6.5143   6.7844

          k = 0.0833 0.5292 0.3472 (  4556 PWs)   bands (ev):

   -30.5489 -13.0148 -12.2108 -12.1328  -9.1642  -7.8910   1.6048   2.1898
     4.9347   6.4721   6.6697   6.8760

          k = 0.0833-0.4330 0.0694 (  4549 PWs)   bands (ev):

   -30.5639 -13.0309 -12.2086 -12.1071  -8.6369  -8.4247   2.5414   3.2563
     4.9818   5.6205   6.2835   6.4076

          k = 0.0833-0.4330 0.2083 (  4548 PWs)   bands (ev):

   -30.5623 -12.9869 -12.2452 -12.1070  -8.7612  -8.3209   2.2507   2.7083
     5.1713   5.8748   6.3989   6.5909

          k = 0.0833-0.4330 0.3472 (  4557 PWs)   bands (ev):

   -30.5606 -12.9224 -12.3022 -12.1019  -9.0289  -8.0456   1.8912   2.2337
     5.1035   6.2490   6.6953   6.7544

          k = 0.0833-0.2406 0.0694 (  4535 PWs)   bands (ev):

   -30.6081 -12.5866 -12.3981 -12.0157  -9.3347  -7.9830   3.1401   3.8806
     5.0614   5.4655   6.2909   6.5965

          k = 0.0833-0.2406 0.2083 (  4532 PWs)   bands (ev):

   -30.6061 -12.6390 -12.4056 -12.0126  -9.1294  -8.1232   2.6682   3.3935
     5.2840   5.8281   6.2313   6.7210

          k = 0.0833-0.2406 0.3472 (  4555 PWs)   bands (ev):

   -30.6041 -12.6797 -12.4197 -12.0090  -8.9335  -8.2470   2.4802   2.7143
     5.5276   5.8340   6.4060   6.8524

          k = 0.0833-0.0481 0.0694 (  4547 PWs)   bands (ev):

   -30.6402 -12.5714 -12.0701 -11.9505  -9.9432  -7.6838   3.1216   4.7377
     5.0798   5.6109   6.5275   6.8535

          k = 0.0833-0.0481 0.2083 (  4538 PWs)   bands (ev):

   -30.6379 -12.7285 -12.0473 -11.9481  -9.5743  -7.9284   2.9272   4.2624
     5.1894   5.5405   6.5085   6.7041

          k = 0.0833-0.0481 0.3472 (  4540 PWs)   bands (ev):

   -30.6356 -12.8610 -12.0325 -11.9458  -9.0254  -8.3728   3.0007   3.4788
     5.4784   5.9826   6.1091   6.3326

          k = 0.2500 0.4330 0.0694 (  4559 PWs)   bands (ev):

   -30.5520 -12.9426 -12.4169 -12.1253  -8.5756  -8.3321   2.6762   2.7091
     4.3952   5.9319   6.2653   6.7553

          k = 0.2500 0.4330 0.2083 (  4556 PWs)   bands (ev):

   -30.5505 -12.8921 -12.4112 -12.1555  -8.7519  -8.2095   2.2678   2.3438
     4.6764   6.2321   6.4839   6.6715

          k = 0.2500 0.4330 0.3472 (  4549 PWs)   bands (ev):

   -30.5489 -12.8372 -12.4115 -12.1823  -8.8759  -8.1413   1.9826   2.0194
     4.9722   6.1159   6.6174   6.8650

          k = 0.2500 0.6255 0.0694 (  4559 PWs)   bands (ev):

   -30.5433 -12.9260 -12.5315 -12.1008  -8.4655  -8.3704   2.5023   2.6761
     4.2099   6.0834   6.2207   6.7897

          k = 0.2500 0.6255 0.2083 (  4568 PWs)   bands (ev):

   -30.5418 -12.8824 -12.5086 -12.1298  -8.6249  -8.2987   2.1943   2.3175
     4.5023   6.2778   6.5049   6.6412

          k = 0.2500 0.6255 0.3472 (  4556 PWs)   bands (ev):

   -30.5403 -12.8349 -12.4876 -12.1584  -8.7555  -8.2557   1.9154   2.0406
     4.8909   6.0530   6.6750   6.7646

          k = 0.2500-0.3368 0.0694 (  4544 PWs)   bands (ev):

   -30.5671 -12.9110 -12.3114 -12.1329  -8.8270  -8.1943   2.8016   2.8926
     4.7120   5.7939   6.2653   6.7387

          k = 0.2500-0.3368 0.2083 (  4551 PWs)   bands (ev):

   -30.5655 -12.8520 -12.3563 -12.1413  -8.9573  -8.0637   2.2465   2.5215
     4.8883   6.2809   6.4834   6.7063

          k = 0.2500-0.3368 0.3472 (  4549 PWs)   bands (ev):

   -30.5638 -12.7948 -12.4037 -12.1447  -9.0079  -8.0273   1.9477   2.1845
     5.0597   6.2236   6.6261   6.9368

          k = 0.2500-0.1443 0.0694 (  4543 PWs)   bands (ev):

   -30.5995 -12.6726 -12.3848 -12.0152  -9.2848  -7.9596   3.0596   3.3553
     5.1049   5.6686   6.3742   6.7165

          k = 0.2500-0.1443 0.2083 (  4539 PWs)   bands (ev):

   -30.5975 -12.6088 -12.4934 -12.0119  -9.2342  -7.9345   2.3994   3.0025
     5.0418   6.1539   6.7361   6.7750

          k = 0.2500-0.1443 0.3472 (  4560 PWs)   bands (ev):

   -30.5956 -12.6183 -12.5278 -12.0089  -9.0767  -8.0487   2.1983   2.5767
     5.1518   6.4473   6.5815   6.7761

          k = 0.4167 0.7217 0.0694 (  4568 PWs)   bands (ev):

   -30.5465 -13.0549 -12.3326 -12.1102  -8.6394  -8.2619   2.3211   2.8441
     4.5701   6.0571   6.1527   6.6737

          k = 0.4167 0.7217 0.2083 (  4565 PWs)   bands (ev):

   -30.5450 -13.0046 -12.3189 -12.1408  -8.8283  -8.1377   2.0346   2.4172
     4.7438   6.1729   6.4833   6.7442

          k = 0.4167 0.7217 0.3472 (  4544 PWs)   bands (ev):

   -30.5434 -12.9526 -12.3043 -12.1715  -8.9752  -8.0574   1.7469   2.1280
     4.9217   6.2117   6.7178   6.7745

          k = 0.4167-0.2406 0.0694 (  4549 PWs)   bands (ev):

   -30.5584 -13.1091 -12.1663 -12.0789  -8.9186  -8.1129   2.2543   3.0208
     5.2071   6.0154   6.1198   6.4646

          k = 0.4167-0.2406 0.2083 (  4544 PWs)   bands (ev):

   -30.5567 -13.0468 -12.2149 -12.0749  -9.1354  -7.8949   1.8637   2.5075
     5.0276   6.2857   6.6428   6.7602

          k = 0.4167-0.2406 0.3472 (  4565 PWs)   bands (ev):

   -30.5552 -12.9940 -12.2537 -12.0710  -9.2240  -7.8347   1.5920   2.2224
     4.9500   6.5717   6.6840   6.9253

          k =-0.0833-0.3368 0.0694 (  4545 PWs)   bands (ev):

   -30.5845 -12.8365 -12.3047 -12.0650  -8.9440  -8.2258   2.9206   3.5197
     4.9501   5.4923   6.2976   6.4730

          k =-0.0833-0.3368 0.2083 (  4549 PWs)   bands (ev):

   -30.5827 -12.8077 -12.3577 -12.0621  -8.8477  -8.3006   2.5118   2.9651
     5.2811   5.8341   6.2731   6.6052

          k =-0.0833-0.3368 0.3472 (  4546 PWs)   bands (ev):

   -30.5808 -12.7446 -12.4417 -12.0574  -8.9513  -8.1504   2.2486   2.3184
     5.3031   6.0453   6.5769   6.8439

          k =-0.0833-0.5292 0.0694 (  4557 PWs)   bands (ev):

   -30.5520 -13.1317 -12.1582 -12.1240  -8.7025  -8.2944   2.2501   3.0785
     5.0192   5.8114   6.2135   6.4488

          k =-0.0833-0.5292 0.2083 (  4553 PWs)   bands (ev):

   -30.5504 -13.0806 -12.1667 -12.1417  -8.9082  -8.1303   1.9913   2.5637
     5.0451   6.0218   6.4768   6.6864

          k =-0.0833-0.5292 0.3472 (  4556 PWs)   bands (ev):

   -30.5489 -13.0214 -12.2021 -12.1362  -9.1175  -7.9511   1.6613   2.2062
     4.9769   6.3693   6.7159   6.7841

          k =-0.0833 0.4330 0.0694 (  4549 PWs)   bands (ev):

   -30.5639 -13.0162 -12.2235 -12.1040  -8.9132  -8.1189   2.4720   2.9709
     5.0125   5.9212   6.1893   6.6273

          k =-0.0833 0.4330 0.2083 (  4548 PWs)   bands (ev):

   -30.5623 -12.9529 -12.2789 -12.1018  -9.0969  -7.9251   2.0012   2.5146
     4.9604   6.3418   6.5499   6.8084

          k =-0.0833 0.4330 0.3472 (  4557 PWs)   bands (ev):

   -30.5606 -12.9019 -12.3222 -12.0997  -9.1466  -7.8972   1.7313   2.2235
     4.9817   6.5388   6.5891   6.9444

          k =-0.0833 0.2406 0.0694 (  4535 PWs)   bands (ev):

   -30.6081 -12.5506 -12.4331 -12.0153  -9.3743  -7.9316   3.1084   3.6998
     5.0399   5.5820   6.3426   6.7536

          k =-0.0833 0.2406 0.2083 (  4532 PWs)   bands (ev):

   -30.6061 -12.5756 -12.4671 -12.0119  -9.2298  -7.9986   2.5660   3.2514
     5.0971   6.0163   6.5567   6.7606

          k =-0.0833 0.2406 0.3472 (  4555 PWs)   bands (ev):

   -30.6041 -12.6572 -12.4413 -12.0087  -9.0086  -8.1595   2.3941   2.7129
     5.2984   6.1202   6.5508   6.7765

          k =-0.0833 0.0481 0.0694 (  4547 PWs)   bands (ev):

   -30.6402 -12.5734 -12.0684 -11.9506  -9.9394  -7.6893   3.1331   4.7121
     5.1702   5.5932   6.5534   6.7187

          k =-0.0833 0.0481 0.2083 (  4538 PWs)   bands (ev):

   -30.6379 -12.7312 -12.0449 -11.9484  -9.5636  -7.9424   2.9430   4.3028
     5.2965   5.4480   6.3578   6.7549

          k =-0.0833 0.0481 0.3472 (  4540 PWs)   bands (ev):

   -30.6355 -12.8621 -12.0316 -11.9459  -9.0109  -8.3890   3.0049   3.4961
     5.6404   5.8316   5.9361   6.4686

          k =-0.2500-0.6255 0.0694 (  4559 PWs)   bands (ev):

   -30.5433 -12.9241 -12.5333 -12.1008  -8.5267  -8.3071   2.4945   2.6622
     4.2177   6.1071   6.1987   6.8102

          k =-0.2500-0.6255 0.2083 (  4568 PWs)   bands (ev):

   -30.5418 -12.8782 -12.5127 -12.1296  -8.6743  -8.2451   2.1720   2.3096
     4.4992   6.3452   6.4522   6.6712

          k =-0.2500-0.6255 0.3472 (  4556 PWs)   bands (ev):

   -30.5403 -12.8325 -12.4900 -12.1582  -8.7731  -8.2360   1.9032   2.0409
     4.8773   6.0923   6.6493   6.7806

          k =-0.2500 0.3368 0.0694 (  4544 PWs)   bands (ev):

   -30.5671 -12.9198 -12.3017 -12.1349  -8.7103  -8.3239   2.7625   3.0986
     4.6612   5.7106   6.2982   6.6212

          k =-0.2500 0.3368 0.2083 (  4551 PWs)   bands (ev):

   -30.5655 -12.8733 -12.3324 -12.1460  -8.7950  -8.2520   2.3745   2.5908
     4.9643   6.0394   6.5296   6.5463

          k =-0.2500 0.3368 0.3472 (  4549 PWs)   bands (ev):

   -30.5638 -12.8089 -12.3884 -12.1469  -8.9451  -8.1034   2.0746   2.1324
     5.1462   6.0489   6.6677   6.8744

          k =-0.2500 0.1443 0.0694 (  4543 PWs)   bands (ev):

   -30.5995 -12.7104 -12.3499 -12.0155  -9.1773  -8.0947   3.0815   3.7955
     5.2048   5.3159   6.2868   6.4267

          k =-0.2500 0.1443 0.2083 (  4539 PWs)   bands (ev):

   -30.5975 -12.7176 -12.3897 -12.0125  -8.9752  -8.2503   2.6376   3.2938
     5.5544   5.5972   6.1062   6.6635

          k =-0.2500 0.1443 0.3472 (  4560 PWs)   bands (ev):

   -30.5956 -12.6917 -12.4568 -12.0091  -8.9226  -8.2321   2.4222   2.5437
     5.4073   6.1513   6.2486   6.8681

          k =-0.4167 0.2406 0.0694 (  4549 PWs)   bands (ev):

   -30.5584 -13.1202 -12.1580 -12.0791  -8.6848  -8.3743   2.3337   3.2525
     5.3290   5.5052   6.2720   6.3077

          k =-0.4167 0.2406 0.2083 (  4544 PWs)   bands (ev):

   -30.5567 -13.0720 -12.1952 -12.0752  -8.8686  -8.2177   2.0816   2.6914
     5.2172   5.9365   6.3833   6.6182

          k =-0.4167 0.2406 0.3472 (  4565 PWs)   bands (ev):

   -30.5552 -13.0086 -12.2418 -12.0712  -9.1282  -7.9590   1.7187   2.2522
     5.0280   6.5605   6.5711   6.7378

!    total energy              =    -139.66443263 Ry
     Harris-Foulkes estimate   =    -139.66443299 Ry
     estimated scf accuracy    <       0.00000055 Ry

     The total energy is the sum of the following terms:

     one-electron contribution =     -31.97812452 Ry
     hartree contribution      =      28.59564857 Ry
     xc contribution           =     -25.69828264 Ry
     ewald contribution        =    -110.58367403 Ry

     convergence has been achieved in   9 iterations

     Forces acting on atoms (Ry/au):

     atom    1 type  3   force =     0.00000000    0.00000000   -0.00064417
     atom    2 type  2   force =     0.00000000   -0.00000000    0.04775560
     atom    3 type  2   force =     0.00000000    0.00000000   -0.04751270
     atom    4 type  1   force =     0.00000000    0.00000000   -0.14509409
     atom    5 type  1   force =     0.00000000   -0.00000000    0.14549537

     Total force =     0.216240     Total SCF correction =     0.001227


     entering subroutine stress ...

          total   stress  (Ry/bohr**3)                   (kbar)     P=  146.36
   0.00154714   0.00000000   0.00000000        227.59      0.00      0.00
   0.00000000   0.00154714  -0.00000000          0.00    227.59     -0.00
   0.00000000  -0.00000000  -0.00010946          0.00     -0.00    -16.10


     BFGS Geometry Optimization

     number of scf cycles    =   1
     number of bfgs steps    =   0

     enthalpy new            =    -138.9318258436 Ry

     new trust radius        =       0.2321464601 bohr
     new conv_thr            =       0.0000010000 Ry

     new unit-cell volume =    235.91591 a.u.^3 (    34.95913 Ang^3 )

CELL_PARAMETERS (alat=  6.37640000)
   0.970699790  -0.000000000  -0.000000000
  -0.485349895   0.840650677  -0.000000000
   0.000000000  -0.000000000   1.115141754

ATOMIC_POSITIONS (crystal)
Ca       0.000000000   0.000000000  -0.000084187
O        0.333333333   0.666666667   0.293241191
O        0.666666667   0.333333333   0.705790554
H        0.333333333   0.666666667   0.655037617
H        0.666666667   0.333333333   0.344014826



     Writing output data file CaOH2_ambient.save
     NEW-OLD atomic charge density approx. for the potential
     NEW k-points:
        k(    1) = (   0.0858487   0.1486943   0.0747289), wk =   0.0370370
        k(    2) = (   0.0858487   0.1486943   0.2241867), wk =   0.0370370
        k(    3) = (   0.0858487   0.1486943   0.3736446), wk =   0.0370370
        k(    4) = (   0.0858487   0.3469535   0.0747289), wk =   0.0370370
        k(    5) = (   0.0858487   0.3469535   0.2241867), wk =   0.0370370
        k(    6) = (   0.0858487   0.3469535   0.3736446), wk =   0.0370370
        k(    7) = (   0.0858487   0.5452126   0.0747289), wk =   0.0370370
        k(    8) = (   0.0858487   0.5452126   0.2241867), wk =   0.0370370
        k(    9) = (   0.0858487   0.5452126   0.3736446), wk =   0.0370370
        k(   10) = (   0.0858487  -0.4460830   0.0747289), wk =   0.0370370
        k(   11) = (   0.0858487  -0.4460830   0.2241867), wk =   0.0370370
        k(   12) = (   0.0858487  -0.4460830   0.3736446), wk =   0.0370370
        k(   13) = (   0.0858487  -0.2478239   0.0747289), wk =   0.0370370
        k(   14) = (   0.0858487  -0.2478239   0.2241867), wk =   0.0370370
        k(   15) = (   0.0858487  -0.2478239   0.3736446), wk =   0.0370370
        k(   16) = (   0.0858487  -0.0495648   0.0747289), wk =   0.0185185
        k(   17) = (   0.0858487  -0.0495648   0.2241867), wk =   0.0185185
        k(   18) = (   0.0858487  -0.0495648   0.3736446), wk =   0.0185185
        k(   19) = (   0.2575462   0.4460830   0.0747289), wk =   0.0370370
        k(   20) = (   0.2575462   0.4460830   0.2241867), wk =   0.0370370
        k(   21) = (   0.2575462   0.4460830   0.3736446), wk =   0.0370370
        k(   22) = (   0.2575462   0.6443422   0.0747289), wk =   0.0370370
        k(   23) = (   0.2575462   0.6443422   0.2241867), wk =   0.0370370
        k(   24) = (   0.2575462   0.6443422   0.3736446), wk =   0.0370370
        k(   25) = (   0.2575462  -0.3469535   0.0747289), wk =   0.0370370
        k(   26) = (   0.2575462  -0.3469535   0.2241867), wk =   0.0370370
        k(   27) = (   0.2575462  -0.3469535   0.3736446), wk =   0.0370370
        k(   28) = (   0.2575462  -0.1486943   0.0747289), wk =   0.0185185
        k(   29) = (   0.2575462  -0.1486943   0.2241867), wk =   0.0185185
        k(   30) = (   0.2575462  -0.1486943   0.3736446), wk =   0.0185185
        k(   31) = (   0.4292436   0.7434717   0.0747289), wk =   0.0370370
        k(   32) = (   0.4292436   0.7434717   0.2241867), wk =   0.0370370
        k(   33) = (   0.4292436   0.7434717   0.3736446), wk =   0.0370370
        k(   34) = (   0.4292436  -0.2478239   0.0747289), wk =   0.0185185
        k(   35) = (   0.4292436  -0.2478239   0.2241867), wk =   0.0185185
        k(   36) = (   0.4292436  -0.2478239   0.3736446), wk =   0.0185185
        k(   37) = (  -0.0858487  -0.3469535   0.0747289), wk =   0.0370370
        k(   38) = (  -0.0858487  -0.3469535   0.2241867), wk =   0.0370370
        k(   39) = (  -0.0858487  -0.3469535   0.3736446), wk =   0.0370370
        k(   40) = (  -0.0858487  -0.5452126   0.0747289), wk =   0.0370370
        k(   41) = (  -0.0858487  -0.5452126   0.2241867), wk =   0.0370370
        k(   42) = (  -0.0858487  -0.5452126   0.3736446), wk =   0.0370370
        k(   43) = (  -0.0858487   0.4460830   0.0747289), wk =   0.0370370
        k(   44) = (  -0.0858487   0.4460830   0.2241867), wk =   0.0370370
        k(   45) = (  -0.0858487   0.4460830   0.3736446), wk =   0.0370370
        k(   46) = (  -0.0858487   0.2478239   0.0747289), wk =   0.0370370
        k(   47) = (  -0.0858487   0.2478239   0.2241867), wk =   0.0370370
        k(   48) = (  -0.0858487   0.2478239   0.3736446), wk =   0.0370370
        k(   49) = (  -0.0858487   0.0495648   0.0747289), wk =   0.0185185
        k(   50) = (  -0.0858487   0.0495648   0.2241867), wk =   0.0185185
        k(   51) = (  -0.0858487   0.0495648   0.3736446), wk =   0.0185185
        k(   52) = (  -0.2575462  -0.6443422   0.0747289), wk =   0.0370370
        k(   53) = (  -0.2575462  -0.6443422   0.2241867), wk =   0.0370370
        k(   54) = (  -0.2575462  -0.6443422   0.3736446), wk =   0.0370370
        k(   55) = (  -0.2575462   0.3469535   0.0747289), wk =   0.0370370
        k(   56) = (  -0.2575462   0.3469535   0.2241867), wk =   0.0370370
        k(   57) = (  -0.2575462   0.3469535   0.3736446), wk =   0.0370370
        k(   58) = (  -0.2575462   0.1486943   0.0747289), wk =   0.0185185
        k(   59) = (  -0.2575462   0.1486943   0.2241867), wk =   0.0185185
        k(   60) = (  -0.2575462   0.1486943   0.3736446), wk =   0.0185185
        k(   61) = (  -0.4292436   0.2478239   0.0747289), wk =   0.0185185
        k(   62) = (  -0.4292436   0.2478239   0.2241867), wk =   0.0185185
        k(   63) = (  -0.4292436   0.2478239   0.3736446), wk =   0.0185185
     extrapolated charge   20.87512, renormalised to   24.00000

     total cpu time spent up to now is      301.3 secs

     per-process dynamical memory:    21.2 Mb

     Self-consistent Calculation

     iteration #  1     ecut=   100.00 Ry     beta=0.30
     Davidson diagonalization with overlap
     ethr =  1.00E-06,  avg # of iterations =  6.5

     total cpu time spent up to now is      339.7 secs

     total energy              =    -138.91211858 Ry
     Harris-Foulkes estimate   =    -142.31921330 Ry
     estimated scf accuracy    <       1.37134963 Ry

     iteration #  2     ecut=   100.00 Ry     beta=0.30
     Davidson diagonalization with overlap
     ethr =  5.71E-03,  avg # of iterations =  3.0

     total cpu time spent up to now is      359.7 secs

     total energy              =    -139.68288090 Ry
     Harris-Foulkes estimate   =    -139.70204629 Ry
     estimated scf accuracy    <       0.11159980 Ry

     iteration #  3     ecut=   100.00 Ry     beta=0.30
     Davidson diagonalization with overlap
     ethr =  4.65E-04,  avg # of iterations =  1.1

     total cpu time spent up to now is      372.7 secs

     total energy              =    -139.64907925 Ry
     Harris-Foulkes estimate   =    -139.68626935 Ry
     estimated scf accuracy    <       0.05956596 Ry

     iteration #  4     ecut=   100.00 Ry     beta=0.30
     Davidson diagonalization with overlap
     ethr =  2.48E-04,  avg # of iterations =  3.0

     total cpu time spent up to now is      391.1 secs

     total energy              =    -139.66815333 Ry
     Harris-Foulkes estimate   =    -139.68092078 Ry
     estimated scf accuracy    <       0.03117472 Ry

     iteration #  5     ecut=   100.00 Ry     beta=0.30
     Davidson diagonalization with overlap
     ethr =  1.30E-04,  avg # of iterations =  2.1

     total cpu time spent up to now is      407.3 secs

     total energy              =    -139.67230714 Ry
     Harris-Foulkes estimate   =    -139.67275454 Ry
     estimated scf accuracy    <       0.00074542 Ry

     iteration #  6     ecut=   100.00 Ry     beta=0.30
     Davidson diagonalization with overlap
     ethr =  3.11E-06,  avg # of iterations =  3.0

     total cpu time spent up to now is      428.3 secs

     total energy              =    -139.67242649 Ry
     Harris-Foulkes estimate   =    -139.67264353 Ry
     estimated scf accuracy    <       0.00048104 Ry

     iteration #  7     ecut=   100.00 Ry     beta=0.30
     Davidson diagonalization with overlap
     ethr =  2.00E-06,  avg # of iterations =  2.1

     total cpu time spent up to now is      445.3 secs

     total energy              =    -139.67251037 Ry
     Harris-Foulkes estimate   =    -139.67251515 Ry
     estimated scf accuracy    <       0.00001004 Ry

     iteration #  8     ecut=   100.00 Ry     beta=0.30
     Davidson diagonalization with overlap
     ethr =  4.18E-08,  avg # of iterations =  2.5

     total cpu time spent up to now is      462.2 secs

     total energy              =    -139.67251167 Ry
     Harris-Foulkes estimate   =    -139.67251227 Ry
     estimated scf accuracy    <       0.00000119 Ry

     iteration #  9     ecut=   100.00 Ry     beta=0.30
     Davidson diagonalization with overlap
     ethr =  4.96E-09,  avg # of iterations =  3.0

     total cpu time spent up to now is      482.5 secs

     total energy              =    -139.67251150 Ry
     Harris-Foulkes estimate   =    -139.67251282 Ry
     estimated scf accuracy    <       0.00000255 Ry

     iteration # 10     ecut=   100.00 Ry     beta=0.30
     Davidson diagonalization with overlap
     ethr =  4.96E-09,  avg # of iterations =  3.0

     total cpu time spent up to now is      500.8 secs

     End of self-consistent calculation

          k = 0.0858 0.1487 0.0747 (  4531 PWs)   bands (ev):

   -28.5881 -10.7351 -10.4402  -9.9082  -8.4096  -5.8591   4.2075   5.5108
     6.4741   7.1145   8.1038   8.6574

          k = 0.0858 0.1487 0.2242 (  4541 PWs)   bands (ev):

   -28.5815 -11.0805 -10.2964  -9.9014  -7.9756  -6.0849   3.7806   5.0443
     6.5895   7.2721   8.0811   8.6526

          k = 0.0858 0.1487 0.3736 (  4548 PWs)   bands (ev):

   -28.5750 -11.3090 -10.2369  -9.8945  -7.4193  -6.4695   3.6751   4.2860
     6.9420   7.4619   7.9143   8.4347

          k = 0.0858 0.3470 0.0747 (  4545 PWs)   bands (ev):

   -28.5203 -11.2443 -10.4094 -10.0359  -7.6346  -6.2537   4.1022   4.2870
     6.3865   7.6939   7.8014   8.6547

          k = 0.0858 0.3470 0.2242 (  4549 PWs)   bands (ev):

   -28.5150 -11.0985 -10.6182 -10.0268  -7.7059  -6.0758   3.2757   3.9098
     6.3470   7.9850   8.4959   8.6617

          k = 0.0858 0.3470 0.3736 (  4546 PWs)   bands (ev):

   -28.5096 -10.9452 -10.8169 -10.0182  -7.6600  -6.0938   2.9672   3.5003
     6.4458   7.9702   8.5464   8.8582

          k = 0.0858 0.5452 0.0747 (  4557 PWs)   bands (ev):

   -28.4699 -11.6387 -10.1997 -10.0913  -7.3651  -6.4205   3.3953   4.2202
     6.3815   7.5408   8.1515   8.5295

          k = 0.0858 0.5452 0.2242 (  4553 PWs)   bands (ev):

   -28.4654 -11.5071 -10.2427 -10.1255  -7.6867  -6.1846   3.0491   3.6090
     6.3139   7.8599   8.4933   8.7618

          k = 0.0858 0.5452 0.3736 (  4556 PWs)   bands (ev):

   -28.4609 -11.3751 -10.2958 -10.1312  -7.9203  -6.0786   2.6601   3.3549
     6.2378   8.2501   8.6008   8.7598

          k = 0.0858-0.4461 0.0747 (  4549 PWs)   bands (ev):

   -28.4885 -11.5294 -10.2292 -10.0949  -7.0856  -6.7861   3.7983   4.5089
     6.3625   7.3269   8.0553   8.3331

          k = 0.0858-0.4461 0.2242 (  4548 PWs)   bands (ev):

   -28.4836 -11.4320 -10.3060 -10.1001  -7.2904  -6.6439   3.5266   3.8248
     6.5571   7.5569   8.2646   8.4279

          k = 0.0858-0.4461 0.3736 (  4557 PWs)   bands (ev):

   -28.4788 -11.2779 -10.4512 -10.0855  -7.6853  -6.2506   2.9824   3.3621
     6.4386   7.9906   8.5123   8.6741

          k = 0.0858-0.2478 0.0747 (  4535 PWs)   bands (ev):

   -28.5568 -10.9653 -10.4850  -9.9695  -7.9224  -6.1546   4.2656   5.0929
     6.4978   7.2357   7.8433   8.4715

          k = 0.0858-0.2478 0.2242 (  4532 PWs)   bands (ev):

   -28.5508 -11.0563 -10.5201  -9.9617  -7.6389  -6.3040   3.7079   4.5853
     6.7068   7.4521   7.9845   8.5226

          k = 0.0858-0.2478 0.3736 (  4555 PWs)   bands (ev):

   -28.5448 -11.1350 -10.5524  -9.9523  -7.4100  -6.3892   3.4264   3.8408
     6.9398   7.3853   8.1840   8.7264

          k = 0.0858-0.0496 0.0747 (  4547 PWs)   bands (ev):

   -28.6060 -10.7570 -10.1499  -9.8755  -8.7810  -5.7018   4.1551   5.9001
     6.4083   6.8754   8.4092   8.7932

          k = 0.0858-0.0496 0.2242 (  4538 PWs)   bands (ev):

   -28.5992 -11.1481 -10.0431  -9.8694  -8.2128  -5.9962   3.8887   5.4006
     6.5493   7.0359   8.2085   8.5840

          k = 0.0858-0.0496 0.3736 (  4540 PWs)   bands (ev):

   -28.5923 -11.4158 -10.0000  -9.8636  -7.4594  -6.5441   3.9068   4.6160
     6.9255   7.5954   7.6918   8.0700

          k = 0.2575 0.4461 0.0747 (  4559 PWs)   bands (ev):

   -28.4701 -11.3963 -10.6012 -10.0949  -6.9691  -6.6387   3.8577   3.9368
     5.6734   7.8451   8.0049   8.8073

          k = 0.2575 0.4461 0.2242 (  4556 PWs)   bands (ev):

   -28.4656 -11.2797 -10.5852 -10.1657  -7.2608  -6.4920   3.4060   3.5220
     6.0332   8.1004   8.2021   8.6886

          k = 0.2575 0.4461 0.3736 (  4549 PWs)   bands (ev):

   -28.4610 -11.1406 -10.5966 -10.2222  -7.4817  -6.4269   3.0884   3.1658
     6.3710   7.9851   8.3385   8.7926

          k = 0.2575 0.6443 0.0747 (  4559 PWs)   bands (ev):

   -28.4565 -11.3609 -10.7798 -10.0594  -6.8235  -6.6875   3.6965   3.8686
     5.4658   7.9552   8.0561   8.8906

          k = 0.2575 0.6443 0.2242 (  4568 PWs)   bands (ev):

   -28.4522 -11.2586 -10.7213 -10.1266  -7.1003  -6.6374   3.3982   3.4617
     5.8446   8.0993   8.3255   8.6586

          k = 0.2575 0.6443 0.3736 (  4556 PWs)   bands (ev):

   -28.4479 -11.1409 -10.6679 -10.1926  -7.3447  -6.6271   3.0648   3.2091
     6.2999   7.9960   8.3958   8.6249

          k = 0.2575-0.3470 0.0747 (  4544 PWs)   bands (ev):

   -28.4935 -11.3660 -10.4209 -10.1176  -7.3019  -6.4481   3.9705   4.1204
     6.0488   7.7005   7.9266   8.7212

          k = 0.2575-0.3470 0.2242 (  4551 PWs)   bands (ev):

   -28.4886 -11.2308 -10.5242 -10.1426  -7.5065  -6.2570   3.3138   3.6940
     6.2485   8.0472   8.3070   8.6648

          k = 0.2575-0.3470 0.3736 (  4549 PWs)   bands (ev):

   -28.4836 -11.0772 -10.6556 -10.1472  -7.6120  -6.2050   2.9697   3.3138
     6.4293   7.9408   8.4617   8.8911

          k = 0.2575-0.1487 0.0747 (  4543 PWs)   bands (ev):

   -28.5435 -11.0600 -10.4875  -9.9665  -7.8771  -6.1115   4.1551   4.5722
     6.4671   7.6332   7.8109   8.6709

          k = 0.2575-0.1487 0.2242 (  4539 PWs)   bands (ev):

   -28.5377 -10.9451 -10.7115  -9.9581  -7.8008  -6.0203   3.3619   4.1643
     6.3669   7.8999   8.4352   8.7616

          k = 0.2575-0.1487 0.3736 (  4560 PWs)   bands (ev):

   -28.5319 -10.9949 -10.7469  -9.9504  -7.6134  -6.1297   3.1148   3.6898
     6.4841   7.9976   8.5031   8.6865

          k = 0.4292 0.7435 0.0747 (  4568 PWs)   bands (ev):

   -28.4614 -11.5393 -10.4758 -10.0722  -7.0881  -6.5461   3.5134   4.0665
     5.8573   7.7687   8.0940   8.7350

          k = 0.4292 0.7435 0.2242 (  4565 PWs)   bands (ev):

   -28.4570 -11.4236 -10.4412 -10.1428  -7.3904  -6.4169   3.2357   3.5513
     6.0929   7.8878   8.4040   8.7282

          k = 0.4292 0.7435 0.3736 (  4544 PWs)   bands (ev):

   -28.4527 -11.2968 -10.4026 -10.2140  -7.6564  -6.3362   2.8560   3.3010
     6.2834   8.1028   8.5045   8.6496

          k = 0.4292-0.2478 0.0747 (  4549 PWs)   bands (ev):

   -28.4798 -11.6184 -10.1636 -10.0558  -7.5064  -6.3440   3.4330   4.2476
     6.6210   7.4854   8.2136   8.3859

          k = 0.4292-0.2478 0.2242 (  4544 PWs)   bands (ev):

   -28.4752 -11.4752 -10.2904 -10.0456  -7.8109  -6.0510   2.9687   3.6331
     6.3592   7.9251   8.6427   8.7271

          k = 0.4292-0.2478 0.3736 (  4565 PWs)   bands (ev):

   -28.4705 -11.3440 -10.3854 -10.0357  -7.9785  -5.9709   2.6072   3.3719
     6.2301   8.2545   8.7083   8.8251

          k =-0.0858-0.3470 0.0747 (  4545 PWs)   bands (ev):

   -28.5203 -11.2897 -10.3560 -10.0400  -7.4373  -6.5149   4.1457   4.7525
     6.4050   7.2385   7.9209   8.3470

          k =-0.0858-0.3470 0.2242 (  4549 PWs)   bands (ev):

   -28.5150 -11.2308 -10.4697 -10.0333  -7.3289  -6.5859   3.6758   4.1353
     6.7014   7.5047   8.1101   8.3612

          k =-0.0858-0.3470 0.3736 (  4546 PWs)   bands (ev):

   -28.5096 -11.0952 -10.6585 -10.0208  -7.5027  -6.3201   3.2725   3.4361
     6.6756   7.6772   8.4026   8.7499

          k =-0.0858-0.5452 0.0747 (  4557 PWs)   bands (ev):

   -28.4699 -11.6498 -10.1850 -10.0943  -7.2173  -6.5984   3.4738   4.3321
     6.3743   7.4394   8.1290   8.4351

          k =-0.0858-0.5452 0.2242 (  4553 PWs)   bands (ev):

   -28.4654 -11.5344 -10.1803 -10.1579  -7.5236  -6.4088   3.2369   3.6862
     6.4044   7.6817   8.3947   8.6191

          k =-0.0858-0.5452 0.3736 (  4556 PWs)   bands (ev):

   -28.4609 -11.3929 -10.2660 -10.1412  -7.8644  -6.1658   2.7445   3.3782
     6.2881   8.1813   8.5733   8.6672

          k =-0.0858 0.4461 0.0747 (  4549 PWs)   bands (ev):

   -28.4885 -11.4984 -10.2716 -10.0862  -7.4586  -6.3443   3.6460   4.1810
     6.3815   7.6318   8.0417   8.5951

          k =-0.0858 0.4461 0.2242 (  4548 PWs)   bands (ev):

   -28.4836 -11.3510 -10.4105 -10.0849  -7.7200  -6.0721   3.0669   3.6546
     6.2978   7.9986   8.5295   8.7741

          k =-0.0858 0.4461 0.3736 (  4557 PWs)   bands (ev):

   -28.4788 -11.2191 -10.5216 -10.0795  -7.8267  -6.0356   2.7385   3.3562
     6.2930   8.1946   8.5652   8.8877

          k =-0.0858 0.2478 0.0747 (  4535 PWs)   bands (ev):

   -28.5568 -10.9151 -10.5390  -9.9682  -7.9747  -6.0724   4.2003   4.9105
     6.4127   7.4496   7.8376   8.6817

          k =-0.0858 0.2478 0.2242 (  4532 PWs)   bands (ev):

   -28.5508 -10.9645 -10.6190  -9.9596  -7.7715  -6.1102   3.5460   4.4233
     6.4481   7.7295   8.2723   8.6531

          k =-0.0858 0.2478 0.3736 (  4555 PWs)   bands (ev):

   -28.5448 -11.1001 -10.5906  -9.9514  -7.5021  -6.2659   3.3114   3.8328
     6.6744   7.6871   8.3870   8.6438

          k =-0.0858 0.0496 0.0747 (  4547 PWs)   bands (ev):

   -28.6060 -10.7644 -10.1413  -9.8759  -8.7769  -5.7110   4.1709   5.8896
     6.5265   6.7923   8.5257   8.6009

          k =-0.0858 0.0496 0.2242 (  4538 PWs)   bands (ev):

   -28.5992 -11.1542 -10.0355  -9.8702  -8.1990  -6.0191   3.9114   5.4443
     6.7009   6.8914   8.0967   8.5967

          k =-0.0858 0.0496 0.3736 (  4540 PWs)   bands (ev):

   -28.5923 -11.4178  -9.9974  -9.8640  -7.4399  -6.5680   3.9153   4.6345
     7.1184   7.4298   7.4947   8.2091

          k =-0.2575-0.6443 0.0747 (  4559 PWs)   bands (ev):

   -28.4565 -11.3568 -10.7842 -10.0594  -6.9071  -6.5989   3.6639   3.8708
     5.4764   7.9622   8.0524   8.9151

          k =-0.2575-0.6443 0.2242 (  4568 PWs)   bands (ev):

   -28.4522 -11.2483 -10.7329 -10.1260  -7.1653  -6.5628   3.3440   3.4721
     5.8418   8.1392   8.3234   8.6775

          k =-0.2575-0.6443 0.3736 (  4556 PWs)   bands (ev):

   -28.4480 -11.1340 -10.6761 -10.1917  -7.3667  -6.6004   3.0519   3.2046
     6.2837   8.0740   8.3405   8.6394

          k =-0.2575 0.3470 0.0747 (  4544 PWs)   bands (ev):

   -28.4935 -11.3844 -10.3966 -10.1218  -7.1356  -6.6448   3.9975   4.3170
     5.9956   7.5776   7.9692   8.5827

          k =-0.2575 0.3470 0.2242 (  4551 PWs)   bands (ev):

   -28.4885 -11.2816 -10.4567 -10.1548  -7.2973  -6.5285   3.5516   3.7348
     6.3456   7.8084   8.2624   8.4987

          k =-0.2575 0.3470 0.3736 (  4549 PWs)   bands (ev):

   -28.4836 -11.1221 -10.6021 -10.1530  -7.5361  -6.3128   3.1224   3.2704
     6.5322   7.7558   8.4796   8.8154

          k =-0.2575 0.1487 0.0747 (  4543 PWs)   bands (ev):

   -28.5435 -11.1306 -10.4111  -9.9673  -7.7318  -6.3252   4.2630   5.0215
     6.7396   6.9816   7.8775   8.2668

          k =-0.2575 0.1487 0.2242 (  4539 PWs)   bands (ev):

   -28.5377 -11.1473 -10.4966  -9.9597  -7.4577  -6.5050   3.7481   4.4939
     7.0002   7.2082   7.8688   8.4335

          k =-0.2575 0.1487 0.3736 (  4560 PWs)   bands (ev):

   -28.5319 -11.1132 -10.6219  -9.9512  -7.4257  -6.3904   3.4117   3.6651
     6.7930   7.6979   8.0663   8.7613

          k =-0.4292 0.2478 0.0747 (  4549 PWs)   bands (ev):

   -28.4798 -11.6418 -10.1387 -10.0562  -7.2075  -6.7061   3.5825   4.5240
     6.7743   7.0607   8.1742   8.1998

          k =-0.4292 0.2478 0.2242 (  4544 PWs)   bands (ev):

   -28.4752 -11.5344 -10.2250 -10.0464  -7.4706  -6.5224   3.3635   3.8134
     6.5921   7.5746   8.2932   8.4759

          k =-0.4292 0.2478 0.3736 (  4565 PWs)   bands (ev):

   -28.4705 -11.3838 -10.3408 -10.0361  -7.8641  -6.1536   2.8021   3.4084
     6.3247   8.2630   8.5555   8.5718

!    total energy              =    -139.67251205 Ry
     Harris-Foulkes estimate   =    -139.67251216 Ry
     estimated scf accuracy    <       0.00000013 Ry

     The total energy is the sum of the following terms:

     one-electron contribution =     -24.05401728 Ry
     hartree contribution      =      26.32344949 Ry
     xc contribution           =     -26.03812979 Ry
     ewald contribution        =    -115.90381447 Ry

     convergence has been achieved in  10 iterations

     Forces acting on atoms (Ry/au):

     atom    1 type  3   force =     0.00000000    0.00000000   -0.00067429
     atom    2 type  2   force =     0.00000000    0.00000000    0.08142246
     atom    3 type  2   force =    -0.00000000    0.00000000   -0.08100178
     atom    4 type  1   force =    -0.00000000   -0.00000000   -0.19003755
     atom    5 type  1   force =     0.00000000    0.00000000    0.19029116

     Total force =     0.292432     Total SCF correction =     0.000278


     entering subroutine stress ...

          total   stress  (Ry/bohr**3)                   (kbar)     P=  430.38
   0.00394407  -0.00000000   0.00000000        580.19     -0.00      0.00
   0.00000000   0.00394407  -0.00000000          0.00    580.19     -0.00
   0.00000000  -0.00000000   0.00088876          0.00     -0.00    130.74


     number of scf cycles    =   2
     number of bfgs steps    =   1

     enthalpy old            =    -138.9318258436 Ry
     enthalpy new            =    -139.0310224278 Ry

     CASE: enthalpy_new < enthalpy_old

     new trust radius        =       0.2571374133 bohr
     new conv_thr            =       0.0000010000 Ry

     new unit-cell volume =    212.77728 a.u.^3 (    31.53034 Ang^3 )

CELL_PARAMETERS (alat=  6.37640000)
   0.963055959   0.000000000  -0.000000000
  -0.481527979   0.834030925  -0.000000000
  -0.000000000  -0.000000000   1.021797683

ATOMIC_POSITIONS (crystal)
Ca       0.000000000   0.000000000  -0.000193311
O        0.333333333   0.666666667   0.303394399
O        0.666666667   0.333333333   0.695689417
H        0.333333333   0.666666667   0.627953740
H        0.666666667   0.333333333   0.371155754



     Writing output data file CaOH2_ambient.save
     NEW-OLD atomic charge density approx. for the potential
     NEW k-points:
        k(    1) = (   0.0865301   0.1498745   0.0815556), wk =   0.0370370
        k(    2) = (   0.0865301   0.1498745   0.2446668), wk =   0.0370370
        k(    3) = (   0.0865301   0.1498745   0.4077781), wk =   0.0370370
        k(    4) = (   0.0865301   0.3497073   0.0815556), wk =   0.0370370
        k(    5) = (   0.0865301   0.3497073   0.2446668), wk =   0.0370370
        k(    6) = (   0.0865301   0.3497073   0.4077781), wk =   0.0370370
        k(    7) = (   0.0865301   0.5495400   0.0815556), wk =   0.0370370
        k(    8) = (   0.0865301   0.5495400   0.2446668), wk =   0.0370370
        k(    9) = (   0.0865301   0.5495400   0.4077781), wk =   0.0370370
        k(   10) = (   0.0865301  -0.4496236   0.0815556), wk =   0.0370370
        k(   11) = (   0.0865301  -0.4496236   0.2446668), wk =   0.0370370
        k(   12) = (   0.0865301  -0.4496236   0.4077781), wk =   0.0370370
        k(   13) = (   0.0865301  -0.2497909   0.0815556), wk =   0.0370370
        k(   14) = (   0.0865301  -0.2497909   0.2446668), wk =   0.0370370
        k(   15) = (   0.0865301  -0.2497909   0.4077781), wk =   0.0370370
        k(   16) = (   0.0865301  -0.0499582   0.0815556), wk =   0.0185185
        k(   17) = (   0.0865301  -0.0499582   0.2446668), wk =   0.0185185
        k(   18) = (   0.0865301  -0.0499582   0.4077781), wk =   0.0185185
        k(   19) = (   0.2595903   0.4496236   0.0815556), wk =   0.0370370
        k(   20) = (   0.2595903   0.4496236   0.2446668), wk =   0.0370370
        k(   21) = (   0.2595903   0.4496236   0.4077781), wk =   0.0370370
        k(   22) = (   0.2595903   0.6494563   0.0815556), wk =   0.0370370
        k(   23) = (   0.2595903   0.6494563   0.2446668), wk =   0.0370370
        k(   24) = (   0.2595903   0.6494563   0.4077781), wk =   0.0370370
        k(   25) = (   0.2595903  -0.3497073   0.0815556), wk =   0.0370370
        k(   26) = (   0.2595903  -0.3497073   0.2446668), wk =   0.0370370
        k(   27) = (   0.2595903  -0.3497073   0.4077781), wk =   0.0370370
        k(   28) = (   0.2595903  -0.1498745   0.0815556), wk =   0.0185185
        k(   29) = (   0.2595903  -0.1498745   0.2446668), wk =   0.0185185
        k(   30) = (   0.2595903  -0.1498745   0.4077781), wk =   0.0185185
        k(   31) = (   0.4326505   0.7493727   0.0815556), wk =   0.0370370
        k(   32) = (   0.4326505   0.7493727   0.2446668), wk =   0.0370370
        k(   33) = (   0.4326505   0.7493727   0.4077781), wk =   0.0370370
        k(   34) = (   0.4326505  -0.2497909   0.0815556), wk =   0.0185185
        k(   35) = (   0.4326505  -0.2497909   0.2446668), wk =   0.0185185
        k(   36) = (   0.4326505  -0.2497909   0.4077781), wk =   0.0185185
        k(   37) = (  -0.0865301  -0.3497073   0.0815556), wk =   0.0370370
        k(   38) = (  -0.0865301  -0.3497073   0.2446668), wk =   0.0370370
        k(   39) = (  -0.0865301  -0.3497073   0.4077781), wk =   0.0370370
        k(   40) = (  -0.0865301  -0.5495400   0.0815556), wk =   0.0370370
        k(   41) = (  -0.0865301  -0.5495400   0.2446668), wk =   0.0370370
        k(   42) = (  -0.0865301  -0.5495400   0.4077781), wk =   0.0370370
        k(   43) = (  -0.0865301   0.4496236   0.0815556), wk =   0.0370370
        k(   44) = (  -0.0865301   0.4496236   0.2446668), wk =   0.0370370
        k(   45) = (  -0.0865301   0.4496236   0.4077781), wk =   0.0370370
        k(   46) = (  -0.0865301   0.2497909   0.0815556), wk =   0.0370370
        k(   47) = (  -0.0865301   0.2497909   0.2446668), wk =   0.0370370
        k(   48) = (  -0.0865301   0.2497909   0.4077781), wk =   0.0370370
        k(   49) = (  -0.0865301   0.0499582   0.0815556), wk =   0.0185185
        k(   50) = (  -0.0865301   0.0499582   0.2446668), wk =   0.0185185
        k(   51) = (  -0.0865301   0.0499582   0.4077781), wk =   0.0185185
        k(   52) = (  -0.2595903  -0.6494563   0.0815556), wk =   0.0370370
        k(   53) = (  -0.2595903  -0.6494563   0.2446668), wk =   0.0370370
        k(   54) = (  -0.2595903  -0.6494563   0.4077781), wk =   0.0370370
        k(   55) = (  -0.2595903   0.3497073   0.0815556), wk =   0.0370370
        k(   56) = (  -0.2595903   0.3497073   0.2446668), wk =   0.0370370
        k(   57) = (  -0.2595903   0.3497073   0.4077781), wk =   0.0370370
        k(   58) = (  -0.2595903   0.1498745   0.0815556), wk =   0.0185185
        k(   59) = (  -0.2595903   0.1498745   0.2446668), wk =   0.0185185
        k(   60) = (  -0.2595903   0.1498745   0.4077781), wk =   0.0185185
        k(   61) = (  -0.4326505   0.2497909   0.0815556), wk =   0.0185185
        k(   62) = (  -0.4326505   0.2497909   0.2446668), wk =   0.0185185
        k(   63) = (  -0.4326505   0.2497909   0.4077781), wk =   0.0185185
     extrapolated charge   21.60759, renormalised to   24.00000

     total cpu time spent up to now is      597.9 secs

     per-process dynamical memory:    21.2 Mb

     Self-consistent Calculation

     iteration #  1     ecut=   100.00 Ry     beta=0.30
     Davidson diagonalization with overlap
     ethr =  1.00E-06,  avg # of iterations =  6.2

     total cpu time spent up to now is      635.1 secs

     total energy              =    -139.33109884 Ry
     Harris-Foulkes estimate   =    -141.29775775 Ry
     estimated scf accuracy    <       0.64997432 Ry

     iteration #  2     ecut=   100.00 Ry     beta=0.30
     Davidson diagonalization with overlap
     ethr =  2.71E-03,  avg # of iterations =  3.0

     total cpu time spent up to now is      655.1 secs

     total energy              =    -139.70985458 Ry
     Harris-Foulkes estimate   =    -139.71559767 Ry
     estimated scf accuracy    <       0.03359370 Ry

     iteration #  3     ecut=   100.00 Ry     beta=0.30
     Davidson diagonalization with overlap
     ethr =  1.40E-04,  avg # of iterations =  1.8

     total cpu time spent up to now is      668.8 secs

     total energy              =    -139.70118532 Ry
     Harris-Foulkes estimate   =    -139.71119462 Ry
     estimated scf accuracy    <       0.01758640 Ry

     iteration #  4     ecut=   100.00 Ry     beta=0.30
     Davidson diagonalization with overlap
     ethr =  7.33E-05,  avg # of iterations =  3.0

     total cpu time spent up to now is      686.9 secs

     total energy              =    -139.70658159 Ry
     Harris-Foulkes estimate   =    -139.70799669 Ry
     estimated scf accuracy    <       0.00454836 Ry

     iteration #  5     ecut=   100.00 Ry     beta=0.30
     Davidson diagonalization with overlap
     ethr =  1.90E-05,  avg # of iterations =  2.0

     total cpu time spent up to now is      701.7 secs

     total energy              =    -139.70640700 Ry
     Harris-Foulkes estimate   =    -139.70688908 Ry
     estimated scf accuracy    <       0.00086551 Ry

     iteration #  6     ecut=   100.00 Ry     beta=0.30
     Davidson diagonalization with overlap
     ethr =  3.61E-06,  avg # of iterations =  2.7

     total cpu time spent up to now is      719.6 secs

     total energy              =    -139.70666754 Ry
     Harris-Foulkes estimate   =    -139.70669335 Ry
     estimated scf accuracy    <       0.00011175 Ry

     iteration #  7     ecut=   100.00 Ry     beta=0.30
     Davidson diagonalization with overlap
     ethr =  4.66E-07,  avg # of iterations =  1.1

     total cpu time spent up to now is      732.8 secs

     total energy              =    -139.70665044 Ry
     Harris-Foulkes estimate   =    -139.70667207 Ry
     estimated scf accuracy    <       0.00004466 Ry

     iteration #  8     ecut=   100.00 Ry     beta=0.30
     Davidson diagonalization with overlap
     ethr =  1.86E-07,  avg # of iterations =  2.0

     total cpu time spent up to now is      749.8 secs

     End of self-consistent calculation

          k = 0.0865 0.1499 0.0816 (  4531 PWs)   bands (ev):

   -26.9868  -9.6137  -8.9097  -8.3004  -7.4341  -4.5896   5.0355   6.1448
     7.4414   7.9618   9.8517  10.4366

          k = 0.0865 0.1499 0.2447 (  4541 PWs)   bands (ev):

   -26.9683 -10.0775  -8.7498  -8.2828  -6.9245  -4.7601   4.2273   5.8331
     7.5936   8.3602   9.5643  10.3575

          k = 0.0865 0.1499 0.4078 (  4548 PWs)   bands (ev):

   -26.9497 -10.4070  -8.6583  -8.2646  -6.3607  -5.0575   3.7554   5.2768
     7.9986   8.5563   9.3902   9.9884

          k = 0.0865 0.3497 0.0816 (  4545 PWs)   bands (ev):

   -26.9063 -10.1711  -8.8477  -8.4451  -6.6814  -5.0981   4.9628   5.3425
     7.3780   8.6884   9.5867  10.5077

          k = 0.0865 0.3497 0.2447 (  4549 PWs)   bands (ev):

   -26.8907  -9.9425  -9.2198  -8.4279  -6.7307  -4.8649   3.9669   4.9055
     7.3269   8.9551  10.2067  10.5313

          k = 0.0865 0.3497 0.4078 (  4546 PWs)   bands (ev):

   -26.8750  -9.7628  -9.4617  -8.4045  -6.7275  -4.8575   3.5135   4.4644
     7.4263   8.9795  10.2985  10.5421

          k = 0.0865 0.5495 0.0816 (  4557 PWs)   bands (ev):

   -26.8461 -10.5472  -8.6898  -8.4591  -6.4453  -5.3583   4.5041   5.3214
     7.3225   8.6215   9.9911  10.4887

          k = 0.0865 0.5495 0.2447 (  4553 PWs)   bands (ev):

   -26.8328 -10.2799  -8.7903  -8.5435  -6.8310  -5.1575   4.1453   4.5156
     7.2958   8.9301  10.3109  10.5971

          k = 0.0865 0.5495 0.4078 (  4556 PWs)   bands (ev):

   -26.8194  -9.9720  -8.9176  -8.5483  -7.2324  -5.0581   3.5876   4.2782
     7.1950   9.3726  10.3771  10.5076

          k = 0.0865-0.4496 0.0816 (  4549 PWs)   bands (ev):

   -26.8682 -10.4584  -8.6526  -8.4928  -6.1437  -5.7401   4.8579   5.5820
     7.3386   8.5727   9.6972  10.2105

          k = 0.0865-0.4496 0.2447 (  4548 PWs)   bands (ev):

   -26.8541 -10.2739  -8.7713  -8.5335  -6.3766  -5.6403   4.4920   4.7853
     7.5623   8.8181   9.9043  10.1388

          k = 0.0865-0.4496 0.4078 (  4557 PWs)   bands (ev):

   -26.8398  -9.9610  -9.0809  -8.4909  -6.8934  -5.1794   3.7777   4.3115
     7.4187   9.1628  10.1949  10.3599

          k = 0.0865-0.2498 0.0816 (  4535 PWs)   bands (ev):

   -26.9497  -9.9269  -8.8623  -8.3744  -6.9565  -4.9680   5.1311   5.8950
     7.5099   8.3059   9.5042  10.2444

          k = 0.0865-0.2498 0.2447 (  4532 PWs)   bands (ev):

   -26.9325 -10.0485  -8.9610  -8.3553  -6.6193  -5.0719   4.2738   5.4933
     7.7394   8.5281   9.5730  10.2217

          k = 0.0865-0.2498 0.4078 (  4555 PWs)   bands (ev):

   -26.9152 -10.1764  -9.0088  -8.3307  -6.4130  -5.0547   3.6956   4.8623
     7.9663   8.4780   9.7208  10.3450

          k = 0.0865-0.0500 0.0816 (  4547 PWs)   bands (ev):

   -27.0081  -9.4623  -8.7811  -8.2611  -7.8143  -4.3834   4.9723   6.3609
     7.3677   7.6851  10.1359  10.5573

          k = 0.0865-0.0500 0.2447 (  4538 PWs)   bands (ev):

   -26.9889 -10.1399  -8.4767  -8.2449  -7.1705  -4.6314   4.2717   6.0830
     7.5546   8.1191   9.6845  10.2643

          k = 0.0865-0.0500 0.4078 (  4540 PWs)   bands (ev):

   -26.9695 -10.5395  -8.3899  -8.2296  -6.3616  -5.1204   3.8598   5.5945
     8.0292   8.6792   9.1487   9.5787

          k = 0.2596 0.4496 0.0816 (  4559 PWs)   bands (ev):

   -26.8463 -10.2833  -9.2252  -8.4588  -5.9449  -5.5510   4.8175   5.1114
     6.6123   9.3456   9.5602  10.7806

          k = 0.2596 0.4496 0.2447 (  4556 PWs)   bands (ev):

   -26.8329 -10.0537  -9.1730  -8.6172  -6.3362  -5.4592   4.2908   4.5983
     7.0549   9.3311   9.9023  10.5549

          k = 0.2596 0.4496 0.4078 (  4549 PWs)   bands (ev):

   -26.8195  -9.7295  -9.2377  -8.7087  -6.6848  -5.4588   3.9294   4.1664
     7.4389   9.2416  10.0501  10.4265

          k = 0.2596 0.6495 0.0816 (  4559 PWs)   bands (ev):

   -26.8301 -10.2150  -9.4742  -8.4203  -5.7513  -5.6305   4.7530   4.9899
     6.3845   9.4456   9.6976  10.9120

          k = 0.2596 0.6495 0.2447 (  4568 PWs)   bands (ev):

   -26.8174 -10.0024  -9.3376  -8.5738  -6.1738  -5.6599   4.4055   4.4866
     6.8654   9.4931   9.9011  10.5636

          k = 0.2596 0.6495 0.4078 (  4556 PWs)   bands (ev):

   -26.8045  -9.7305  -9.2103  -8.7209  -6.5894  -5.7477   4.0268   4.1778
     7.3871   9.5058   9.9650  10.1913

          k = 0.2596-0.3497 0.0816 (  4544 PWs)   bands (ev):

   -26.8742 -10.2788  -8.9476  -8.5002  -6.3201  -5.3309   4.8824   5.2442
     7.0242   9.0042   9.5506  10.6226

          k = 0.2596-0.3497 0.2447 (  4551 PWs)   bands (ev):

   -26.8598 -10.0314  -9.1239  -8.5713  -6.5632  -5.1376   4.1140   4.7292
     7.2578   9.0867  10.1088  10.4996

          k = 0.2596-0.3497 0.4078 (  4549 PWs)   bands (ev):

   -26.8454  -9.6589  -9.4488  -8.5639  -6.7464  -5.1011   3.6831   4.2874
     7.4544   9.0315  10.2258  10.5688

          k = 0.2596-0.1499 0.0816 (  4543 PWs)   bands (ev):

   -26.9338  -9.9993  -8.9046  -8.3674  -6.9227  -4.9175   5.0064   5.5117
     7.4524   8.5427   9.5711  10.5155

          k = 0.2596-0.1499 0.2447 (  4539 PWs)   bands (ev):

   -26.9172  -9.8930  -9.2341  -8.3460  -6.7936  -4.7462   3.9529   5.1242
     7.3310   8.8958  10.0349  10.6137

          k = 0.2596-0.1499 0.4078 (  4560 PWs)   bands (ev):

   -26.9006  -9.9950  -9.2507  -8.3261  -6.6308  -4.8063   3.5022   4.6643
     7.4618   8.9579  10.2494  10.3263

          k = 0.4327 0.7494 0.0816 (  4568 PWs)   bands (ev):

   -26.8360 -10.4263  -9.0813  -8.4333  -6.0775  -5.4901   4.6085   5.1809
     6.7609   9.0812   9.8391  10.7330

          k = 0.4327 0.7494 0.2447 (  4565 PWs)   bands (ev):

   -26.8230 -10.1886  -9.0035  -8.5905  -6.4957  -5.4259   4.3546   4.4638
     7.0921   9.1534  10.0921  10.5839

          k = 0.4327 0.7494 0.4078 (  4544 PWs)   bands (ev):

   -26.8099  -9.8978  -8.9146  -8.7455  -6.9457  -5.3911   3.8153   4.2471
     7.3111   9.4206  10.1724  10.3120

          k = 0.4327-0.2498 0.0816 (  4549 PWs)   bands (ev):

   -26.8579 -10.5324  -8.5595  -8.4717  -6.6273  -5.2623   4.5201   5.3300
     7.6452   8.3719  10.1766  10.2528

          k = 0.4327-0.2498 0.2447 (  4544 PWs)   bands (ev):

   -26.8442 -10.2442  -8.8691  -8.4461  -6.9487  -4.9749   3.9846   4.5605
     7.3297   8.8979  10.5366  10.5384

          k = 0.4327-0.2498 0.4078 (  4565 PWs)   bands (ev):

   -26.8303  -9.9267  -9.0981  -8.4212  -7.2448  -4.8908   3.4755   4.2846
     7.1585   9.3135  10.5169  10.5854

          k =-0.0865-0.3497 0.0816 (  4545 PWs)   bands (ev):

   -26.9062 -10.2353  -8.7404  -8.4563  -6.4810  -5.4145   5.0923   5.7146
     7.4455   8.5226   9.4431  10.1575

          k =-0.0865-0.3497 0.2447 (  4549 PWs)   bands (ev):

   -26.8907 -10.1407  -8.9397  -8.4439  -6.3618  -5.4748   4.3982   5.1346
     7.7311   8.6895   9.7674  10.0109

          k =-0.0865-0.3497 0.4078 (  4546 PWs)   bands (ev):

   -26.8750  -9.9598  -9.2245  -8.4104  -6.5885  -5.1222   3.7480   4.4962
     7.6810   8.7905  10.0267  10.4130

          k =-0.0865-0.5495 0.0816 (  4557 PWs)   bands (ev):

   -26.8461 -10.5656  -8.6634  -8.4561  -6.2857  -5.5688   4.5979   5.4402
     7.3062   8.5946   9.9081  10.3768

          k =-0.0865-0.5495 0.2447 (  4553 PWs)   bands (ev):

   -26.8328 -10.3348  -8.6370  -8.6105  -6.6697  -5.4284   4.4424   4.5088
     7.3933   8.8678  10.1199  10.4009

          k =-0.0865-0.5495 0.4078 (  4556 PWs)   bands (ev):

   -26.8194 -10.0217  -8.8196  -8.5729  -7.1941  -5.1587   3.6772   4.3064
     7.2509   9.3909  10.2042  10.4544

          k =-0.0865 0.4496 0.0816 (  4549 PWs)   bands (ev):

   -26.8682 -10.4087  -8.7415  -8.4819  -6.5283  -5.2363   4.6679   5.2584
     7.3510   8.6633   9.8867  10.5016

          k =-0.0865 0.4496 0.2447 (  4548 PWs)   bands (ev):

   -26.8541 -10.1185  -9.0366  -8.4946  -6.8065  -4.9560   3.9688   4.6273
     7.2768   8.9812  10.3743  10.6240

          k =-0.0865 0.4496 0.4078 (  4557 PWs)   bands (ev):

   -26.8398  -9.7804  -9.3199  -8.4769  -7.0073  -4.9282   3.5332   4.2811
     7.2560   9.2158  10.4237  10.5937

          k =-0.0865 0.2498 0.0816 (  4535 PWs)   bands (ev):

   -26.9497  -9.8771  -8.9354  -8.3709  -7.0021  -4.8630   5.0512   5.7414
     7.4036   8.4628   9.4988  10.4961

          k =-0.0865 0.2498 0.2447 (  4532 PWs)   bands (ev):

   -26.9325  -9.9570  -9.0897  -8.3504  -6.7462  -4.8297   4.0875   5.3506
     7.4361   8.7760   9.8084  10.4589

          k =-0.0865 0.2498 0.4078 (  4555 PWs)   bands (ev):

   -26.9153 -10.1405  -9.0608  -8.3287  -6.4958  -4.9140   3.5955   4.8292
     7.6861   8.7267   9.9808  10.2774

          k =-0.0865 0.0500 0.0816 (  4547 PWs)   bands (ev):

   -27.0081  -9.4801  -8.7532  -8.2620  -7.8175  -4.3959   4.9901   6.3743
     7.5079   7.5423  10.3015  10.3432

          k =-0.0865 0.0500 0.2447 (  4538 PWs)   bands (ev):

   -26.9889 -10.1486  -8.4593  -8.2467  -7.1597  -4.6622   4.2989   6.1157
     7.7154   7.9621   9.6312  10.2369

          k =-0.0865 0.0500 0.4078 (  4540 PWs)   bands (ev):

   -26.9695 -10.5420  -8.3847  -8.2305  -6.3429  -5.1476   3.8726   5.6065
     8.2191   8.5224   8.9750   9.6917

          k =-0.2596-0.6495 0.0816 (  4559 PWs)   bands (ev):

   -26.8301 -10.2079  -9.4827  -8.4205  -5.8551  -5.5187   4.7154   4.9920
     6.3974   9.4224   9.7245  10.9361

          k =-0.2596-0.6495 0.2447 (  4568 PWs)   bands (ev):

   -26.8174  -9.9807  -9.3652  -8.5721  -6.2429  -5.5746   4.3616   4.4824
     6.8624   9.4725   9.9564  10.5892

          k =-0.2596-0.6495 0.4078 (  4556 PWs)   bands (ev):

   -26.8045  -9.7098  -9.2398  -8.7151  -6.6096  -5.7191   4.0236   4.1626
     7.3710   9.5262   9.9929  10.1819

          k =-0.2596 0.3497 0.0816 (  4544 PWs)   bands (ev):

   -26.8742 -10.3069  -8.9025  -8.5046  -6.1459  -5.5572   4.9666   5.3949
     6.9809   9.0426   9.4259  10.4818

          k =-0.2596 0.3497 0.2447 (  4551 PWs)   bands (ev):

   -26.8598 -10.1214  -8.9753  -8.6003  -6.3566  -5.4536   4.3307   4.8117
     7.3679   9.0441   9.8847  10.2905

          k =-0.2596 0.3497 0.4078 (  4549 PWs)   bands (ev):

   -26.8454  -9.8096  -9.2679  -8.5767  -6.6801  -5.2247   3.7918   4.2980
     7.5644   8.9350  10.1560  10.4736

          k =-0.2596 0.1499 0.0816 (  4543 PWs)   bands (ev):

   -26.9338 -10.0868  -8.7744  -8.3691  -6.7860  -5.1855   5.1626   5.8907
     7.7619   8.1216   9.5438   9.9966

          k =-0.2596 0.1499 0.2447 (  4539 PWs)   bands (ev):

   -26.9172 -10.1139  -8.9372  -8.3495  -6.4606  -5.3422   4.3915   5.4243
     8.0324   8.3418   9.5001  10.0702

          k =-0.2596 0.1499 0.4078 (  4560 PWs)   bands (ev):

   -26.9006 -10.1061  -9.1040  -8.3279  -6.4621  -5.1095   3.7437   4.7213
     7.8137   8.7169   9.6950  10.4024

          k =-0.4327 0.2498 0.0816 (  4549 PWs)   bands (ev):

   -26.8579 -10.5709  -8.4955  -8.4725  -6.3181  -5.6807   4.6965   5.6151
     7.8103   8.1016   9.9929  10.0251

          k =-0.4327 0.2498 0.2447 (  4544 PWs)   bands (ev):

   -26.8441 -10.3612  -8.6817  -8.4478  -6.6148  -5.5473   4.5299   4.6415
     7.5943   8.7351  10.0850  10.1243

          k =-0.4327 0.2498 0.4078 (  4565 PWs)   bands (ev):

   -26.8303 -10.0405  -8.9344  -8.4221  -7.1655  -5.1051   3.6889   4.3263
     7.2688   9.3652  10.2283  10.3811

!    total energy              =    -139.70666072 Ry
     Harris-Foulkes estimate   =    -139.70666134 Ry
     estimated scf accuracy    <       0.00000099 Ry

     The total energy is the sum of the following terms:

     one-electron contribution =     -18.14127666 Ry
     hartree contribution      =      24.74927846 Ry
     xc contribution           =     -26.42779144 Ry
     ewald contribution        =    -119.88687108 Ry

     convergence has been achieved in   8 iterations

     Forces acting on atoms (Ry/au):

     atom    1 type  3   force =    -0.00000000    0.00000000   -0.00038939
     atom    2 type  2   force =     0.00000000   -0.00000000    0.05958695
     atom    3 type  2   force =    -0.00000000   -0.00000000   -0.05926645
     atom    4 type  1   force =    -0.00000000   -0.00000000   -0.17842734
     atom    5 type  1   force =     0.00000000    0.00000000    0.17849623

     Total force =     0.266008     Total SCF correction =     0.002945


     entering subroutine stress ...

          total   stress  (Ry/bohr**3)                   (kbar)     P=  785.04
   0.00660176  -0.00000000   0.00000000        971.15     -0.00      0.00
  -0.00000000   0.00660176   0.00000000         -0.00    971.15      0.00
   0.00000000  -0.00000000   0.00280623          0.00     -0.00    412.81


     number of scf cycles    =   3
     number of bfgs steps    =   2

     enthalpy old            =    -139.0310224278 Ry
     enthalpy new            =    -139.1280884056 Ry

     CASE: enthalpy_new < enthalpy_old

     new trust radius        =       0.4657743580 bohr
     new conv_thr            =       0.0000010000 Ry

     new unit-cell volume =    192.12992 a.u.^3 (    28.47072 Ang^3 )

CELL_PARAMETERS (alat=  6.37640000)
   0.998292094   0.000000000  -0.000000000
  -0.499146047   0.864546314  -0.000000000
   0.000000000  -0.000000000   0.858662410

ATOMIC_POSITIONS (crystal)
Ca       0.000000000   0.000000000  -0.000402844
O        0.333333333   0.666666667   0.320464019
O        0.666666667   0.333333333   0.678709303
H        0.333333333   0.666666667   0.567438759
H        0.666666667   0.333333333   0.431790762



     Writing output data file CaOH2_ambient.save
     NEW-OLD atomic charge density approx. for the potential
     NEW k-points:
        k(    1) = (   0.0834759   0.1445845   0.0970502), wk =   0.0370370
        k(    2) = (   0.0834759   0.1445845   0.2911505), wk =   0.0370370
        k(    3) = (   0.0834759   0.1445845   0.4852509), wk =   0.0370370
        k(    4) = (   0.0834759   0.3373638   0.0970502), wk =   0.0370370
        k(    5) = (   0.0834759   0.3373638   0.2911505), wk =   0.0370370
        k(    6) = (   0.0834759   0.3373638   0.4852509), wk =   0.0370370
        k(    7) = (   0.0834759   0.5301432   0.0970502), wk =   0.0370370
        k(    8) = (   0.0834759   0.5301432   0.2911505), wk =   0.0370370
        k(    9) = (   0.0834759   0.5301432   0.4852509), wk =   0.0370370
        k(   10) = (   0.0834759  -0.4337535   0.0970502), wk =   0.0370370
        k(   11) = (   0.0834759  -0.4337535   0.2911505), wk =   0.0370370
        k(   12) = (   0.0834759  -0.4337535   0.4852509), wk =   0.0370370
        k(   13) = (   0.0834759  -0.2409742   0.0970502), wk =   0.0370370
        k(   14) = (   0.0834759  -0.2409742   0.2911505), wk =   0.0370370
        k(   15) = (   0.0834759  -0.2409742   0.4852509), wk =   0.0370370
        k(   16) = (   0.0834759  -0.0481948   0.0970502), wk =   0.0185185
        k(   17) = (   0.0834759  -0.0481948   0.2911505), wk =   0.0185185
        k(   18) = (   0.0834759  -0.0481948   0.4852509), wk =   0.0185185
        k(   19) = (   0.2504277   0.4337535   0.0970502), wk =   0.0370370
        k(   20) = (   0.2504277   0.4337535   0.2911505), wk =   0.0370370
        k(   21) = (   0.2504277   0.4337535   0.4852509), wk =   0.0370370
        k(   22) = (   0.2504277   0.6265329   0.0970502), wk =   0.0370370
        k(   23) = (   0.2504277   0.6265329   0.2911505), wk =   0.0370370
        k(   24) = (   0.2504277   0.6265329   0.4852509), wk =   0.0370370
        k(   25) = (   0.2504277  -0.3373638   0.0970502), wk =   0.0370370
        k(   26) = (   0.2504277  -0.3373638   0.2911505), wk =   0.0370370
        k(   27) = (   0.2504277  -0.3373638   0.4852509), wk =   0.0370370
        k(   28) = (   0.2504277  -0.1445845   0.0970502), wk =   0.0185185
        k(   29) = (   0.2504277  -0.1445845   0.2911505), wk =   0.0185185
        k(   30) = (   0.2504277  -0.1445845   0.4852509), wk =   0.0185185
        k(   31) = (   0.4173795   0.7229225   0.0970502), wk =   0.0370370
        k(   32) = (   0.4173795   0.7229225   0.2911505), wk =   0.0370370
        k(   33) = (   0.4173795   0.7229225   0.4852509), wk =   0.0370370
        k(   34) = (   0.4173795  -0.2409742   0.0970502), wk =   0.0185185
        k(   35) = (   0.4173795  -0.2409742   0.2911505), wk =   0.0185185
        k(   36) = (   0.4173795  -0.2409742   0.4852509), wk =   0.0185185
        k(   37) = (  -0.0834759  -0.3373638   0.0970502), wk =   0.0370370
        k(   38) = (  -0.0834759  -0.3373638   0.2911505), wk =   0.0370370
        k(   39) = (  -0.0834759  -0.3373638   0.4852509), wk =   0.0370370
        k(   40) = (  -0.0834759  -0.5301432   0.0970502), wk =   0.0370370
        k(   41) = (  -0.0834759  -0.5301432   0.2911505), wk =   0.0370370
        k(   42) = (  -0.0834759  -0.5301432   0.4852509), wk =   0.0370370
        k(   43) = (  -0.0834759   0.4337535   0.0970502), wk =   0.0370370
        k(   44) = (  -0.0834759   0.4337535   0.2911505), wk =   0.0370370
        k(   45) = (  -0.0834759   0.4337535   0.4852509), wk =   0.0370370
        k(   46) = (  -0.0834759   0.2409742   0.0970502), wk =   0.0370370
        k(   47) = (  -0.0834759   0.2409742   0.2911505), wk =   0.0370370
        k(   48) = (  -0.0834759   0.2409742   0.4852509), wk =   0.0370370
        k(   49) = (  -0.0834759   0.0481948   0.0970502), wk =   0.0185185
        k(   50) = (  -0.0834759   0.0481948   0.2911505), wk =   0.0185185
        k(   51) = (  -0.0834759   0.0481948   0.4852509), wk =   0.0185185
        k(   52) = (  -0.2504277  -0.6265329   0.0970502), wk =   0.0370370
        k(   53) = (  -0.2504277  -0.6265329   0.2911505), wk =   0.0370370
        k(   54) = (  -0.2504277  -0.6265329   0.4852509), wk =   0.0370370
        k(   55) = (  -0.2504277   0.3373638   0.0970502), wk =   0.0370370
        k(   56) = (  -0.2504277   0.3373638   0.2911505), wk =   0.0370370
        k(   57) = (  -0.2504277   0.3373638   0.4852509), wk =   0.0370370
        k(   58) = (  -0.2504277   0.1445845   0.0970502), wk =   0.0185185
        k(   59) = (  -0.2504277   0.1445845   0.2911505), wk =   0.0185185
        k(   60) = (  -0.2504277   0.1445845   0.4852509), wk =   0.0185185
        k(   61) = (  -0.4173795   0.2409742   0.0970502), wk =   0.0185185
        k(   62) = (  -0.4173795   0.2409742   0.2911505), wk =   0.0185185
        k(   63) = (  -0.4173795   0.2409742   0.4852509), wk =   0.0185185
     extrapolated charge   21.63576, renormalised to   24.00000

     total cpu time spent up to now is      845.4 secs

     per-process dynamical memory:    21.2 Mb

     Self-consistent Calculation

     iteration #  1     ecut=   100.00 Ry     beta=0.30
     Davidson diagonalization with overlap
     ethr =  1.00E-06,  avg # of iterations =  7.0

     total cpu time spent up to now is      888.2 secs

     total energy              =    -139.01277911 Ry
     Harris-Foulkes estimate   =    -140.80720163 Ry
     estimated scf accuracy    <       0.89407992 Ry

     iteration #  2     ecut=   100.00 Ry     beta=0.30
     Davidson diagonalization with overlap
     ethr =  3.73E-03,  avg # of iterations =  2.0

     total cpu time spent up to now is      907.5 secs

     total energy              =    -139.33053438 Ry
     Harris-Foulkes estimate   =    -139.34028175 Ry
     estimated scf accuracy    <       0.04492677 Ry

     iteration #  3     ecut=   100.00 Ry     beta=0.30
     Davidson diagonalization with overlap
     ethr =  1.87E-04,  avg # of iterations =  1.2

     total cpu time spent up to now is      921.0 secs

     total energy              =    -139.31717760 Ry
     Harris-Foulkes estimate   =    -139.33189884 Ry
     estimated scf accuracy    <       0.02422991 Ry

     iteration #  4     ecut=   100.00 Ry     beta=0.30
     Davidson diagonalization with overlap
     ethr =  1.01E-04,  avg # of iterations =  2.0

     total cpu time spent up to now is      938.6 secs

     total energy              =    -139.32186152 Ry
     Harris-Foulkes estimate   =    -139.32211563 Ry
     estimated scf accuracy    <       0.00099425 Ry

     iteration #  5     ecut=   100.00 Ry     beta=0.30
     Davidson diagonalization with overlap
     ethr =  4.14E-06,  avg # of iterations =  2.0

     total cpu time spent up to now is      952.9 secs

     total energy              =    -139.32170769 Ry
     Harris-Foulkes estimate   =    -139.32191827 Ry
     estimated scf accuracy    <       0.00040290 Ry

     iteration #  6     ecut=   100.00 Ry     beta=0.30
     Davidson diagonalization with overlap
     ethr =  1.68E-06,  avg # of iterations =  2.0

     total cpu time spent up to now is      971.0 secs

     total energy              =    -139.32182715 Ry
     Harris-Foulkes estimate   =    -139.32183754 Ry
     estimated scf accuracy    <       0.00008226 Ry

     iteration #  7     ecut=   100.00 Ry     beta=0.30
     Davidson diagonalization with overlap
     ethr =  3.43E-07,  avg # of iterations =  1.0

     total cpu time spent up to now is      984.3 secs

     total energy              =    -139.32179981 Ry
     Harris-Foulkes estimate   =    -139.32182821 Ry
     estimated scf accuracy    <       0.00005540 Ry

     iteration #  8     ecut=   100.00 Ry     beta=0.30
     Davidson diagonalization with overlap
     ethr =  2.31E-07,  avg # of iterations =  2.0

     total cpu time spent up to now is     1001.7 secs

     End of self-consistent calculation

          k = 0.0835 0.1446 0.0971 (  4531 PWs)   bands (ev):

   -25.9025 -10.7429  -7.8164  -7.2124  -6.9759  -6.4774   5.3036   6.3996
     7.8412   8.2392  11.5027  12.1641

          k = 0.0835 0.1446 0.2912 (  4541 PWs)   bands (ev):

   -25.8098 -10.9161  -7.8495  -7.1503  -6.7818  -6.5667   3.9193   6.3393
     8.1128   8.7619  10.9566  11.9398

          k = 0.0835 0.1446 0.4853 (  4548 PWs)   bands (ev):

   -25.7145 -11.1529  -7.6833  -7.0597  -6.7870  -6.5883   2.9514   5.9933
     8.6121   9.0847  10.6669  11.3181

          k = 0.0835 0.3374 0.0971 (  4545 PWs)   bands (ev):

   -25.8371 -10.8293  -8.3798  -7.2656  -6.7870  -6.3795   5.6875   6.0673
     7.8848   8.8496  11.0158  12.4122

          k = 0.0835 0.3374 0.2912 (  4549 PWs)   bands (ev):

   -25.7519 -10.6137  -8.6132  -7.3169  -6.8593  -6.4105   4.4826   5.7199
     7.8998   9.0271  11.3280  12.3984

          k = 0.0835 0.3374 0.4853 (  4546 PWs)   bands (ev):

   -25.6645 -10.5176  -8.5580  -7.2819  -7.0796  -6.5661   3.7178   5.2565
     8.0519   9.1324  11.5424  11.9994

          k = 0.0835 0.5301 0.0971 (  4557 PWs)   bands (ev):

   -25.7885 -10.8621  -8.7710  -7.2301  -6.9760  -6.0769   5.7351   6.2180
     7.7392   8.8563  11.3882  12.4309

          k = 0.0835 0.5301 0.2912 (  4553 PWs)   bands (ev):

   -25.7089 -10.3857  -8.9006  -7.4705  -7.0947  -6.4036   5.1703   5.2873
     7.9031   9.0974  11.4252  12.4063

          k = 0.0835 0.5301 0.4853 (  4556 PWs)   bands (ev):

   -25.6274  -9.6240  -9.2178  -7.8413  -7.1961  -6.7002   4.4163   4.8629
     7.8313   9.6138  11.2662  12.2752

          k = 0.0835-0.4338 0.0971 (  4549 PWs)   bands (ev):

   -25.8063 -10.8919  -8.4737  -7.1424  -7.1002  -6.2419   5.6077   6.4152
     7.8895   8.9909  11.0393  12.1548

          k = 0.0835-0.4338 0.2912 (  4548 PWs)   bands (ev):

   -25.7247 -10.5946  -8.2738  -7.6764  -7.1076  -6.5015   4.7795   5.7664
     8.1723   9.2759  11.0521  11.8583

          k = 0.0835-0.4338 0.4853 (  4557 PWs)   bands (ev):

   -25.6410 -10.2014  -8.4442  -7.8978  -7.1614  -6.6930   4.1402   5.0889
     8.0601   9.4635  11.2913  11.8990

          k = 0.0835-0.2410 0.0971 (  4535 PWs)   bands (ev):

[...]
        k(   59) = (  -0.2536071   0.1464201   0.2098816), wk =   0.0185185
        k(   60) = (  -0.2536071   0.1464201   0.3498027), wk =   0.0185185
        k(   61) = (  -0.4226785   0.2440335   0.0699605), wk =   0.0185185
        k(   62) = (  -0.4226785   0.2440335   0.2098816), wk =   0.0185185
        k(   63) = (  -0.4226785   0.2440335   0.3498027), wk =   0.0185185

     Dense  grid:    25009 G-vectors     FFT dimensions: (  36,  36,  45)

     Largest allocated arrays     est. size (Mb)     dimensions
        Kohn-Sham Wavefunctions         0.81 Mb     (   4414,   12)
        NL pseudopotentials             0.61 Mb     (   4414,    9)
        Each V/rho on FFT grid          0.89 Mb     (  58320)
        Each G-vector array             0.19 Mb     (  25009)
        G-vector shells                 0.01 Mb     (   1204)
     Largest temporary arrays     est. size (Mb)     dimensions
        Auxiliary wavefunctions         3.23 Mb     (   4414,   48)
        Each subspace H/S matrix        0.04 Mb     (  48,  48)
        Each <psi_i|beta_j> matrix      0.00 Mb     (      9,   12)
        Arrays for rho mixing          14.24 Mb     (  58320,  16)

     Initial potential from superposition of free atoms

     starting charge   21.99998, renormalised to   24.00000
     Starting wfc are   14 randomized atomic wfcs

     Writing output data file CaOH2_ambient.save

     total cpu time spent up to now is     5284.7 secs

     per-process dynamical memory:    19.4 Mb

     Self-consistent Calculation

     iteration #  1     ecut=   100.00 Ry     beta=0.30
     Davidson diagonalization with overlap
     ethr =  1.00E-06,  avg # of iterations =  6.0

     total cpu time spent up to now is     5315.3 secs

     total energy              =    -140.10288045 Ry
     Harris-Foulkes estimate   =    -140.17619223 Ry
     estimated scf accuracy    <       0.40139488 Ry

     iteration #  2     ecut=   100.00 Ry     beta=0.30
     Davidson diagonalization with overlap
     ethr =  1.67E-03,  avg # of iterations =  1.0

     total cpu time spent up to now is     5324.4 secs

     total energy              =    -139.94960594 Ry
     Harris-Foulkes estimate   =    -140.10612319 Ry
     estimated scf accuracy    <       0.25064161 Ry

     iteration #  3     ecut=   100.00 Ry     beta=0.30
     Davidson diagonalization with overlap
     ethr =  1.04E-03,  avg # of iterations =  2.0

     total cpu time spent up to now is     5335.9 secs

     total energy              =    -139.98912121 Ry
     Harris-Foulkes estimate   =    -139.99157930 Ry
     estimated scf accuracy    <       0.01065363 Ry

     iteration #  4     ecut=   100.00 Ry     beta=0.30
     Davidson diagonalization with overlap
     ethr =  4.44E-05,  avg # of iterations =  2.0

     total cpu time spent up to now is     5346.6 secs

     total energy              =    -139.98932467 Ry
     Harris-Foulkes estimate   =    -139.98999541 Ry
     estimated scf accuracy    <       0.00179484 Ry

     iteration #  5     ecut=   100.00 Ry     beta=0.30
     Davidson diagonalization with overlap
     ethr =  7.48E-06,  avg # of iterations =  2.0

     total cpu time spent up to now is     5357.3 secs

     total energy              =    -139.98950332 Ry
     Harris-Foulkes estimate   =    -139.98950824 Ry
     estimated scf accuracy    <       0.00010688 Ry

     iteration #  6     ecut=   100.00 Ry     beta=0.30
     Davidson diagonalization with overlap
     ethr =  4.45E-07,  avg # of iterations =  2.0

     total cpu time spent up to now is     5367.9 secs

     total energy              =    -139.98953271 Ry
     Harris-Foulkes estimate   =    -139.98951634 Ry
     estimated scf accuracy    <       0.00004589 Ry

     iteration #  7     ecut=   100.00 Ry     beta=0.30
     Davidson diagonalization with overlap
     ethr =  1.91E-07,  avg # of iterations =  2.0

     total cpu time spent up to now is     5377.7 secs

     total energy              =    -139.98953597 Ry
     Harris-Foulkes estimate   =    -139.98953601 Ry
     estimated scf accuracy    <       0.00000153 Ry

     iteration #  8     ecut=   100.00 Ry     beta=0.30
     Davidson diagonalization with overlap
     ethr =  6.36E-09,  avg # of iterations =  2.0

     total cpu time spent up to now is     5390.2 secs

     total energy              =    -139.98953625 Ry
     Harris-Foulkes estimate   =    -139.98953633 Ry
     estimated scf accuracy    <       0.00000069 Ry

     iteration #  9     ecut=   100.00 Ry     beta=0.30
     Davidson diagonalization with overlap
     ethr =  2.86E-09,  avg # of iterations =  2.4

     total cpu time spent up to now is     5403.4 secs

     total energy              =    -139.98953641 Ry
     Harris-Foulkes estimate   =    -139.98953645 Ry
     estimated scf accuracy    <       0.00000020 Ry

     iteration # 10     ecut=   100.00 Ry     beta=0.30
     Davidson diagonalization with overlap
     ethr =  8.41E-10,  avg # of iterations =  1.0

     total cpu time spent up to now is     5412.4 secs

     total energy              =    -139.98953637 Ry
     Harris-Foulkes estimate   =    -139.98953641 Ry
     estimated scf accuracy    <       0.00000009 Ry

     iteration # 11     ecut=   100.00 Ry     beta=0.30
     Davidson diagonalization with overlap
     ethr =  3.92E-10,  avg # of iterations =  2.0

     total cpu time spent up to now is     5424.0 secs

     End of self-consistent calculation

          k = 0.0845 0.1464 0.0700 (  4370 PWs)   bands (ev):

   -29.8986 -12.2018 -11.8671 -11.2158 -10.5501  -8.6912   1.2624   3.1645
     5.2252   5.3932   6.4692   6.9743

          k = 0.0845 0.1464 0.2099 (  4374 PWs)   bands (ev):

   -29.8957 -12.5323 -11.6577 -11.2126 -10.2496  -8.8741   1.3346   2.7016
     5.2932   5.7536   6.3262   6.8714

          k = 0.0845 0.1464 0.3498 (  4364 PWs)   bands (ev):

   -29.8927 -12.7291 -11.5742 -11.2093  -9.8330  -9.1811   1.5361   2.1535
     5.5596   5.9488   6.2250   6.6375

          k = 0.0845 0.3416 0.0700 (  4384 PWs)   bands (ev):

   -29.8461 -12.5563 -11.8321 -11.3217 -10.0491  -9.0230   1.6486   2.5625
     5.0591   5.3618   6.0219   6.9072

          k = 0.0845 0.3416 0.2099 (  4388 PWs)   bands (ev):

   -29.8438 -12.4045 -12.0446 -11.3164 -10.1185  -8.8787   1.4533   2.1650
     5.1707   5.5210   6.3639   6.9317

          k = 0.0845 0.3416 0.3498 (  4389 PWs)   bands (ev):

   -29.8414 -12.2890 -12.1972 -11.3123 -10.0839  -8.8934   1.4220   1.8479
     5.2614   5.7322   6.5144   6.7995

          k = 0.0845 0.5369 0.0700 (  4396 PWs)   bands (ev):

   -29.8072 -12.8775 -11.5234 -11.4090  -9.9960  -9.1484   1.9397   2.1566
     4.5220   5.4750   6.1544   6.7640

          k = 0.0845 0.5369 0.2099 (  4393 PWs)   bands (ev):

   -29.8053 -12.7629 -11.5808 -11.4170 -10.2592  -8.9587   1.6104   1.9966
     4.9831   5.3499   6.3105   6.8466

          k = 0.0845 0.5369 0.3498 (  4393 PWs)   bands (ev):

   -29.8034 -12.6527 -11.6130 -11.4293 -10.4443  -8.8774   1.3289   1.9562
     5.1043   5.6719   6.2275   6.8586

          k = 0.0845-0.4393 0.0700 (  4389 PWs)   bands (ev):

   -29.8215 -12.8045 -11.6022 -11.3794  -9.7035  -9.4337   1.9660   2.3751
     4.6251   5.5816   5.9636   6.6352

          k = 0.0845-0.4393 0.2099 (  4392 PWs)   bands (ev):

   -29.8194 -12.7341 -11.6592 -11.3811  -9.8765  -9.3052   1.9035   2.0042
     5.1023   5.5755   6.0130   6.5734

          k = 0.0845-0.4393 0.3498 (  4389 PWs)   bands (ev):

   -29.8174 -12.5919 -11.8011 -11.3728 -10.1781  -9.0093   1.5120   1.8737
     5.2719   5.7675   6.1072   6.7226

          k = 0.0845-0.2440 0.0700 (  4379 PWs)   bands (ev):

   -29.8743 -12.3772 -11.8845 -11.2655 -10.2005  -8.9396   1.4996   2.9381
     5.2083   5.4820   6.0492   6.7996

          k = 0.0845-0.2440 0.2099 (  4385 PWs)   bands (ev):

   -29.8717 -12.4925 -11.8590 -11.2617  -9.9884  -9.0647   1.5068   2.4714
     5.3150   5.8001   6.1951   6.5957

          k = 0.0845-0.2440 0.3498 (  4379 PWs)   bands (ev):

   -29.8690 -12.5644 -11.8706 -11.2570  -9.8316  -9.1267   1.5849   1.9311
     5.5781   5.7163   6.4036   6.6019

          k = 0.0845-0.0488 0.0700 (  4367 PWs)   bands (ev):

   -29.9125 -12.2078 -11.6477 -11.1894 -10.8360  -8.5614   1.1315   3.2982
     5.2150   5.3227   6.7746   7.0866

          k = 0.0845-0.0488 0.2099 (  4375 PWs)   bands (ev):

   -29.9095 -12.5966 -11.4084 -11.1866 -10.4635  -8.7971   1.2647   2.8528
     5.3208   5.6297   6.5069   6.9330

          k = 0.0845-0.0488 0.3498 (  4380 PWs)   bands (ev):

   -29.9064 -12.8292 -11.3353 -11.1839  -9.8833  -9.2333   1.5396   2.3056
     5.6136   6.0157   6.1642   6.5465

          k = 0.2536 0.4393 0.0700 (  4389 PWs)   bands (ev):

   -29.8072 -12.6620 -11.9372 -11.4201  -9.5789  -9.3453   1.9289   2.1826
     4.4420   5.5946   5.8130   7.0085

          k = 0.2536 0.4393 0.2099 (  4403 PWs)   bands (ev):

   -29.8054 -12.5617 -11.9566 -11.4534  -9.8093  -9.2164   1.7834   1.9643
     4.8050   5.6358   6.0369   6.7845

          k = 0.2536 0.4393 0.3498 (  4412 PWs)   bands (ev):

   -29.8035 -12.4326 -12.0079 -11.4789  -9.9722  -9.1598   1.6470   1.7946
     5.1780   5.6923   6.2594   6.4759

          k = 0.2536 0.6345 0.0700 (  4384 PWs)   bands (ev):

   -29.7967 -12.6220 -12.0819 -11.4001  -9.5048  -9.3660   2.0001   2.0349
     4.2841   5.6392   5.8007   7.0757

          k = 0.2536 0.6345 0.2099 (  4396 PWs)   bands (ev):

   -29.7950 -12.5421 -12.0480 -11.4356  -9.7060  -9.3232   1.8281   1.9482
     4.6403   5.7287   5.9333   6.7899

          k = 0.2536 0.6345 0.3498 (  4414 PWs)   bands (ev):

   -29.7933 -12.4439 -12.0267 -11.4700  -9.8845  -9.3073   1.6689   1.8694
     5.0920   5.8216   6.0309   6.4157

          k = 0.2536-0.3416 0.0700 (  4387 PWs)   bands (ev):

   -29.8253 -12.6479 -11.8190 -11.4060  -9.8152  -9.1870   1.8085   2.3664
     4.7387   5.4793   5.9011   6.9367

          k = 0.2536-0.3416 0.2099 (  4401 PWs)   bands (ev):

   -29.8232 -12.5179 -11.9462 -11.4124  -9.9830  -9.0283   1.6234   2.0428
     5.0413   5.5136   6.2469   6.8130

          k = 0.2536-0.3416 0.3498 (  4398 PWs)   bands (ev):

   -29.8211 -12.3652 -12.0901 -11.4149 -10.0585  -8.9872   1.5234   1.7938
     5.2507   5.6492   6.4946   6.5922

          k = 0.2536-0.1464 0.0700 (  4371 PWs)   bands (ev):

   -29.8640 -12.4121 -11.9131 -11.2638 -10.2040  -8.9033   1.5080   2.7520
     5.2700   5.2957   6.0836   6.9519

          k = 0.2536-0.1464 0.2099 (  4373 PWs)   bands (ev):

   -29.8615 -12.3146 -12.1011 -11.2598 -10.1637  -8.8290   1.3674   2.3071
     5.1865   5.6412   6.3302   7.0310

          k = 0.2536-0.1464 0.3498 (  4381 PWs)   bands (ev):

   -29.8590 -12.4237 -12.0537 -11.2562 -10.0284  -8.9136   1.4204   1.9127
     5.2946   5.8240   6.4892   6.8314

          k = 0.4227 0.7321 0.0700 (  4390 PWs)   bands (ev):

   -29.8006 -12.7858 -11.7874 -11.4107  -9.7402  -9.2482   1.9902   2.0883
     4.3736   5.5519   5.9508   6.9420

          k = 0.4227 0.7321 0.2099 (  4398 PWs)   bands (ev):

   -29.7988 -12.6915 -11.7755 -11.4485  -9.9749  -9.1400   1.7356   1.9908
     4.7749   5.5462   6.0955   6.8086

          k = 0.4227 0.7321 0.3498 (  4414 PWs)   bands (ev):

   -29.7970 -12.5854 -11.7647 -11.4873 -10.1758  -9.0749   1.4908   1.9429
     5.1061   5.7311   6.0930   6.6323

          k = 0.4227-0.2440 0.0700 (  4390 PWs)   bands (ev):

   -29.8148 -12.8626 -11.5261 -11.3369 -10.1055  -9.0901   1.8784   2.2083
     4.6642   5.4173   6.2814   6.6818

          k = 0.4227-0.2440 0.2099 (  4386 PWs)   bands (ev):

   -29.8128 -12.7305 -11.6435 -11.3320 -10.3566  -8.8584   1.5163   1.9973
     5.1822   5.2010   6.4377   6.9004

          k = 0.4227-0.2440 0.3498 (  4388 PWs)   bands (ev):

   -29.8109 -12.6224 -11.7168 -11.3274 -10.4883  -8.7973   1.2711   1.9287
     5.1070   5.6710   6.3371   6.9573

          k =-0.0845-0.3416 0.0700 (  4384 PWs)   bands (ev):

   -29.8461 -12.6215 -11.7535 -11.3246  -9.8659  -9.2495   1.7654   2.6583
     4.9621   5.5596   5.8713   6.6744

          k =-0.0845-0.3416 0.2099 (  4388 PWs)   bands (ev):

   -29.8438 -12.5928 -11.8272 -11.3212  -9.7815  -9.3056   1.7381   2.2176
     5.2896   5.6874   6.0935   6.4458

          k =-0.0845-0.3416 0.3498 (  4389 PWs)   bands (ev):

   -29.8414 -12.4785 -11.9923 -11.3144  -9.9523  -9.0714   1.6935   1.7217
     5.4681   5.6655   6.3857   6.5796

          k =-0.0845-0.5369 0.0700 (  4396 PWs)   bands (ev):

   -29.8072 -12.8934 -11.4947 -11.4198  -9.8907  -9.2710   2.0231   2.1796
     4.4669   5.5429   6.0913   6.6823

          k =-0.0845-0.5369 0.2099 (  4393 PWs)   bands (ev):

   -29.8053 -12.8022 -11.5025 -11.4483 -10.1373  -9.1185   1.7570   2.0176
     4.9633   5.4348   6.1473   6.7248

          k =-0.0845-0.5369 0.3498 (  4393 PWs)   bands (ev):

   -29.8034 -12.6782 -11.5653 -11.4452 -10.4029  -8.9403   1.3826   1.9746
     5.1449   5.7510   6.0495   6.8182

          k =-0.0845 0.4393 0.0700 (  4389 PWs)   bands (ev):

   -29.8215 -12.7595 -11.6617 -11.3723  -9.9999  -9.0948   1.8179   2.2838
     4.7418   5.4062   6.1211   6.8396

          k =-0.0845 0.4393 0.2099 (  4392 PWs)   bands (ev):

   -29.8194 -12.6165 -11.8116 -11.3684 -10.2108  -8.8785   1.5159   2.0164
     5.0886   5.3641   6.3977   6.9170

          k =-0.0845 0.4393 0.3498 (  4389 PWs)   bands (ev):

   -29.8174 -12.5059 -11.9078 -11.3672 -10.2877  -8.8497   1.3499   1.8750
     5.1496   5.6759   6.4204   6.8479

          k =-0.0845 0.2440 0.0700 (  4379 PWs)   bands (ev):

   -29.8743 -12.3120 -11.9577 -11.2647 -10.2474  -8.8703   1.4507   2.8942
     5.2284   5.4267   6.0587   6.9597

          k =-0.0845 0.2440 0.2099 (  4385 PWs)   bands (ev):

   -29.8717 -12.3967 -11.9687 -11.2603 -10.1097  -8.9003   1.3964   2.4280
     5.2282   5.7459   6.2447   6.9130

          k =-0.0845 0.2440 0.3498 (  4379 PWs)   bands (ev):

   -29.8690 -12.5282 -11.9130 -11.2563  -9.9158  -9.0215   1.4940   1.9543
     5.4081   5.8268   6.4349   6.7285

          k =-0.0845 0.0488 0.0700 (  4367 PWs)   bands (ev):

   -29.9125 -12.2183 -11.6338 -11.1896 -10.8342  -8.5688   1.1384   3.3044
     5.2229   5.3156   6.8989   6.9380

          k =-0.0845 0.0488 0.2099 (  4375 PWs)   bands (ev):

   -29.9095 -12.6038 -11.3985 -11.1870 -10.4513  -8.8162   1.2793   2.8624
     5.3505   5.6063   6.5529   6.8420

          k =-0.0845 0.0488 0.3498 (  4380 PWs)   bands (ev):

   -29.9064 -12.8316 -11.3324 -11.1842  -9.8635  -9.2557   1.5490   2.3076
     5.6679   5.9609   6.1528   6.5424

          k =-0.2536-0.6345 0.0700 (  4384 PWs)   bands (ev):

   -29.7967 -12.6158 -12.0889 -11.3998  -9.5626  -9.3052   1.9592   2.0598
     4.2919   5.6187   5.8208   7.0887

          k =-0.2536-0.6345 0.2099 (  4396 PWs)   bands (ev):

   -29.7950 -12.5266 -12.0660 -11.4345  -9.7559  -9.2672   1.7983   1.9505
     4.6451   5.6789   5.9980   6.8058

          k =-0.2536-0.6345 0.3498 (  4414 PWs)   bands (ev):

   -29.7933 -12.4335 -12.0389 -11.4691  -9.9020  -9.2867   1.6614   1.8647
     5.0840   5.7705   6.1442   6.3774

          k =-0.2536 0.3416 0.0700 (  4387 PWs)   bands (ev):

   -29.8253 -12.6750 -11.7836 -11.4100  -9.6580  -9.3638   1.8724   2.4045
     4.6925   5.5798   5.8044   6.8476

          k =-0.2536 0.3416 0.2099 (  4401 PWs)   bands (ev):

   -29.8232 -12.5938 -11.8507 -11.4212  -9.8050  -9.2476   1.7848   2.0437
     5.0550   5.6295   6.0520   6.6593

          k =-0.2536 0.3416 0.3498 (  4398 PWs)   bands (ev):

   -29.8211 -12.4413 -12.0033 -11.4192  -9.9960  -9.0713   1.6437   1.7433
     5.3318   5.6503   6.3072   6.6001

          k =-0.2536 0.1464 0.0700 (  4371 PWs)   bands (ev):

   -29.8640 -12.5100 -11.8009 -11.2642 -10.0710  -9.0851   1.6244   2.8550
     5.1417   5.5150   6.0188   6.6201

          k =-0.2536 0.1464 0.2099 (  4373 PWs)   bands (ev):

   -29.8615 -12.5585 -11.8292 -11.2607  -9.8486  -9.2418   1.6372   2.3937
     5.3713   5.7881   6.2576   6.2584

          k =-0.2536 0.1464 0.3498 (  4381 PWs)   bands (ev):

   -29.8589 -12.5368 -11.9270 -11.2567  -9.8649  -9.1260   1.6566   1.8316
     5.5769   5.6851   6.4642   6.4877

          k =-0.4227 0.2440 0.0700 (  4390 PWs)   bands (ev):

   -29.8148 -12.8965 -11.4890 -11.3371  -9.8873  -9.3440   2.0209   2.2938
     4.5469   5.5677   6.1541   6.4921

          k =-0.4227 0.2440 0.2099 (  4386 PWs)   bands (ev):

   -29.8128 -12.8155 -11.5424 -11.3325 -10.0998  -9.1961   1.8511   2.0157
     5.1070   5.4209   6.1227   6.6021

          k =-0.4227 0.2440 0.3498 (  4388 PWs)   bands (ev):

   -29.8109 -12.6793 -11.6460 -11.3276 -10.4030  -8.9290   1.3972   1.9535
     5.1948   5.8047   6.0320   6.8303

!    total energy              =    -139.98953639 Ry
     Harris-Foulkes estimate   =    -139.98953639 Ry
     estimated scf accuracy    <          4.7E-09 Ry

     The total energy is the sum of the following terms:

     one-electron contribution =     -35.50535067 Ry
     hartree contribution      =      30.63889045 Ry
     xc contribution           =     -26.31583467 Ry
     ewald contribution        =    -108.80724150 Ry

     convergence has been achieved in  11 iterations

     Forces acting on atoms (Ry/au):

     atom    1 type  3   force =     0.00000000    0.00000000   -0.00004029
     atom    2 type  2   force =    -0.00000000    0.00000000    0.00044202
     atom    3 type  2   force =     0.00000000   -0.00000000   -0.00033362
     atom    4 type  1   force =     0.00000000   -0.00000000   -0.00008898
     atom    5 type  1   force =    -0.00000000    0.00000000    0.00002087

     Total force =     0.000563     Total SCF correction =     0.000040


     entering subroutine stress ...

          total   stress  (Ry/bohr**3)                   (kbar)     P=  398.48
   0.00270802   0.00000000  -0.00000000        398.36      0.00     -0.00
   0.00000000   0.00270802  -0.00000000          0.00    398.36     -0.00
  -0.00000000   0.00000000   0.00271035         -0.00      0.00    398.71


     Writing output data file CaOH2_ambient.save

     init_run     :     51.60s CPU     52.14s WALL (       2 calls)
     electrons    :   3282.93s CPU   3384.30s WALL (      22 calls)
     update_pot   :    900.51s CPU    910.09s WALL (      20 calls)
     forces       :    331.66s CPU    334.39s WALL (      22 calls)
     stress       :    739.11s CPU    745.71s WALL (      22 calls)

     Called by init_run:
     wfcinit      :     13.89s CPU     14.08s WALL (       2 calls)
     potinit      :     15.84s CPU     15.89s WALL (       2 calls)

     Called by electrons:
     c_bands      :   2777.71s CPU   2856.95s WALL (     181 calls)
     sum_band     :    458.63s CPU    476.75s WALL (     181 calls)
     v_of_rho     :     23.99s CPU     24.97s WALL (     202 calls)
     mix_rho      :     24.13s CPU     25.63s WALL (     181 calls)

     Called by c_bands:
     init_us_2    :     83.08s CPU     90.32s WALL (   25704 calls)
     cegterg      :   2733.35s CPU   2767.39s WALL (   11403 calls)

     Called by *egterg:
     h_psi        :   2123.54s CPU   2148.60s WALL (   38398 calls)
     g_psi        :     18.19s CPU     18.41s WALL (   26869 calls)
     cdiaghg      :     19.41s CPU     20.32s WALL (   36949 calls)

     Called by h_psi:
     add_vuspsi   :     50.09s CPU     50.79s WALL (   38398 calls)

     General routines
     calbec       :     57.16s CPU     57.81s WALL (   41170 calls)
     fft          :      7.09s CPU      7.24s WALL (    2398 calls)
     ffts         :     10.85s CPU     11.00s WALL (    3700 calls)
     fftw         :   1964.72s CPU   1985.49s WALL (  916066 calls)
     davcio       :      8.75s CPU     56.78s WALL (   37107 calls)


     PWSCF        :     1h28m CPU        1h30m WALL


   This run was terminated on:   1:59:17  20Apr2014            

=------------------------------------------------------------------------------=
   JOB DONE.
=------------------------------------------------------------------------------=
