
     Program PWSCF v.5.0.2 (svn rev. 9392) starts on 19Apr2014 at  9: 9:54 

     This program is part of the open-source Quantum ESPRESSO suite
     for quantum simulation of materials; please cite
         "P. Giannozzi et al., J. Phys.:Condens. Matter 21 395502 (2009);
          URL http://www.quantum-espresso.org", 
     in publications or presentations arising from this work. More details at
     http://www.quantum-espresso.org/quote.php

     Serial version

     Current dimensions of program PWSCF are:
     Max number of different atomic species (ntypx) = 10
     Max number of k-points (npk) =  40000
     Max angular momentum in pseudopotentials (lmaxx) =  3
     Waiting for input...
     Reading input from standard input

     G-vector sticks info
     --------------------
     sticks:   dense  smooth     PW     G-vecs:    dense   smooth      PW
     Sum         913     913    337                26553    26553    5967



     bravais-lattice index     =            4
     lattice parameter (alat)  =       6.3764  a.u.
     unit-cell volume          =     274.6567 (a.u.)^3
     number of atoms/cell      =            5
     number of atomic types    =            3
     number of electrons       =        24.00
     number of Kohn-Sham states=           12
     kinetic-energy cutoff     =     100.0000  Ry
     charge density cutoff     =     320.0000  Ry
     convergence threshold     =      1.0E-06
     mixing beta               =       0.3000
     number of iterations used =           16  local-TF  mixing
     Exchange-correlation      = PBE ( 1 4 3 4 0)
     EXX-fraction              =        0.00
     nstep                     =           50


     celldm(1)=   6.376400  celldm(2)=   0.000000  celldm(3)=   1.223300
     celldm(4)=   0.000000  celldm(5)=   0.000000  celldm(6)=   0.000000

     crystal axes: (cart. coord. in units of alat)
               a(1) = (   1.000000   0.000000   0.000000 )  
               a(2) = (  -0.500000   0.866025   0.000000 )  
               a(3) = (   0.000000   0.000000   1.223300 )  

     reciprocal axes: (cart. coord. in units 2 pi/alat)
               b(1) = (  1.000000  0.577350 -0.000000 )  
               b(2) = (  0.000000  1.154701  0.000000 )  
               b(3) = (  0.000000 -0.000000  0.817461 )  


     PseudoPot. # 1 for H  read from file:
     /home/ilia/espresso/pseudo/H.pbe-sp-mt.ncpp
     MD5 check sum: 7a641936b52ccecd26bd1ad87cca5aed
     Pseudo is Norm-conserving, Zval =  1.0
     Generated by old ld1 code (numerical format)
     Using radial grid of 1076 points,  0 beta functions with: 

     PseudoPot. # 2 for O  read from file:
     /home/ilia/espresso/pseudo/O.pbe-sp-mt.ncpp
     MD5 check sum: 8a3d23d410d2f3ebfd0a39faacc72cbb
     Pseudo is Norm-conserving, Zval =  6.0
     Generated by old ld1 code (numerical format)
     Using radial grid of 1130 points,  1 beta functions with: 
                l(1) =   1

     PseudoPot. # 3 for Ca read from file:
     /home/ilia/espresso/pseudo/Ca.pbe-sp-mt_ion2.ncpp
     MD5 check sum: 4bcd670d05521f7b178fdf0a334578ab
     Pseudo is Norm-conserving, Zval = 10.0
     Generated by old ld1 code (numerical format)
     Using radial grid of 1153 points,  1 beta functions with: 
                l(1) =   1

     atomic species   valence    mass     pseudopotential
        H              1.00     1.00700     H ( 1.00)
        O              6.00    16.00000     O ( 1.00)
        Ca            10.00    40.07800     Ca( 1.00)

     12 Sym. Ops., with inversion, found



   Cartesian axes

     site n.     atom                  positions (alat units)
         1           Ca  tau(   1) = (   0.0000000   0.0000000   0.0000000  )
         2           O   tau(   2) = (   0.0000000   0.5773503   0.2850289  )
         3           O   tau(   3) = (   0.5000000   0.2886751   0.9382711  )
         4           H   tau(   4) = (   0.0000000   0.5773503   0.5309122  )
         5           H   tau(   5) = (   0.5000000   0.2886751   0.6923878  )

     number of k points=    63
                       cart. coord. in units 2pi/alat
        k(    1) = (   0.0833333   0.1443376   0.0681217), wk =   0.0370370
        k(    2) = (   0.0833333   0.1443376   0.2043652), wk =   0.0370370
        k(    3) = (   0.0833333   0.1443376   0.3406087), wk =   0.0370370
        k(    4) = (   0.0833333   0.3367877   0.0681217), wk =   0.0370370
        k(    5) = (   0.0833333   0.3367877   0.2043652), wk =   0.0370370
        k(    6) = (   0.0833333   0.3367877   0.3406087), wk =   0.0370370
        k(    7) = (   0.0833333   0.5292377   0.0681217), wk =   0.0370370
        k(    8) = (   0.0833333   0.5292377   0.2043652), wk =   0.0370370
        k(    9) = (   0.0833333   0.5292377   0.3406087), wk =   0.0370370
        k(   10) = (   0.0833333  -0.4330127   0.0681217), wk =   0.0370370
        k(   11) = (   0.0833333  -0.4330127   0.2043652), wk =   0.0370370
        k(   12) = (   0.0833333  -0.4330127   0.3406087), wk =   0.0370370
        k(   13) = (   0.0833333  -0.2405626   0.0681217), wk =   0.0370370
        k(   14) = (   0.0833333  -0.2405626   0.2043652), wk =   0.0370370
        k(   15) = (   0.0833333  -0.2405626   0.3406087), wk =   0.0370370
        k(   16) = (   0.0833333  -0.0481125   0.0681217), wk =   0.0185185
        k(   17) = (   0.0833333  -0.0481125   0.2043652), wk =   0.0185185
        k(   18) = (   0.0833333  -0.0481125   0.3406087), wk =   0.0185185
        k(   19) = (   0.2500000   0.4330127   0.0681217), wk =   0.0370370
        k(   20) = (   0.2500000   0.4330127   0.2043652), wk =   0.0370370
        k(   21) = (   0.2500000   0.4330127   0.3406087), wk =   0.0370370
        k(   22) = (   0.2500000   0.6254628   0.0681217), wk =   0.0370370
        k(   23) = (   0.2500000   0.6254628   0.2043652), wk =   0.0370370
        k(   24) = (   0.2500000   0.6254628   0.3406087), wk =   0.0370370
        k(   25) = (   0.2500000  -0.3367877   0.0681217), wk =   0.0370370
        k(   26) = (   0.2500000  -0.3367877   0.2043652), wk =   0.0370370
        k(   27) = (   0.2500000  -0.3367877   0.3406087), wk =   0.0370370
        k(   28) = (   0.2500000  -0.1443376   0.0681217), wk =   0.0185185
        k(   29) = (   0.2500000  -0.1443376   0.2043652), wk =   0.0185185
        k(   30) = (   0.2500000  -0.1443376   0.3406087), wk =   0.0185185
        k(   31) = (   0.4166667   0.7216878   0.0681217), wk =   0.0370370
        k(   32) = (   0.4166667   0.7216878   0.2043652), wk =   0.0370370
        k(   33) = (   0.4166667   0.7216878   0.3406087), wk =   0.0370370
        k(   34) = (   0.4166667  -0.2405626   0.0681217), wk =   0.0185185
        k(   35) = (   0.4166667  -0.2405626   0.2043652), wk =   0.0185185
        k(   36) = (   0.4166667  -0.2405626   0.3406087), wk =   0.0185185
        k(   37) = (  -0.0833333   0.3367877  -0.0681217), wk =   0.0370370
        k(   38) = (  -0.0833333   0.3367877  -0.2043652), wk =   0.0370370
        k(   39) = (  -0.0833333   0.3367877  -0.3406087), wk =   0.0370370
        k(   40) = (  -0.0833333   0.5292377  -0.0681217), wk =   0.0370370
        k(   41) = (  -0.0833333   0.5292377  -0.2043652), wk =   0.0370370
        k(   42) = (  -0.0833333   0.5292377  -0.3406087), wk =   0.0370370
        k(   43) = (  -0.0833333  -0.4330127  -0.0681217), wk =   0.0370370
        k(   44) = (  -0.0833333  -0.4330127  -0.2043652), wk =   0.0370370
        k(   45) = (  -0.0833333  -0.4330127  -0.3406087), wk =   0.0370370
        k(   46) = (  -0.0833333  -0.2405626  -0.0681217), wk =   0.0370370
        k(   47) = (  -0.0833333  -0.2405626  -0.2043652), wk =   0.0370370
        k(   48) = (  -0.0833333  -0.2405626  -0.3406087), wk =   0.0370370
        k(   49) = (  -0.0833333  -0.0481125  -0.0681217), wk =   0.0185185
        k(   50) = (  -0.0833333  -0.0481125  -0.2043652), wk =   0.0185185
        k(   51) = (  -0.0833333  -0.0481125  -0.3406087), wk =   0.0185185
        k(   52) = (  -0.2500000   0.6254628  -0.0681217), wk =   0.0370370
        k(   53) = (  -0.2500000   0.6254628  -0.2043652), wk =   0.0370370
        k(   54) = (  -0.2500000   0.6254628  -0.3406087), wk =   0.0370370
        k(   55) = (  -0.2500000  -0.3367877  -0.0681217), wk =   0.0370370
        k(   56) = (  -0.2500000  -0.3367877  -0.2043652), wk =   0.0370370
        k(   57) = (  -0.2500000  -0.3367877  -0.3406087), wk =   0.0370370
        k(   58) = (  -0.2500000  -0.1443376  -0.0681217), wk =   0.0185185
        k(   59) = (  -0.2500000  -0.1443376  -0.2043652), wk =   0.0185185
        k(   60) = (  -0.2500000  -0.1443376  -0.3406087), wk =   0.0185185
        k(   61) = (  -0.4166667  -0.2405626  -0.0681217), wk =   0.0185185
        k(   62) = (  -0.4166667  -0.2405626  -0.2043652), wk =   0.0185185
        k(   63) = (  -0.4166667  -0.2405626  -0.3406087), wk =   0.0185185

     Dense  grid:    26553 G-vectors     FFT dimensions: (  40,  40,  45)

     Largest allocated arrays     est. size (Mb)     dimensions
        Kohn-Sham Wavefunctions         0.85 Mb     (   4667,   12)
        NL pseudopotentials             0.64 Mb     (   4667,    9)
        Each V/rho on FFT grid          1.10 Mb     (  72000)
        Each G-vector array             0.20 Mb     (  26553)
        G-vector shells                 0.20 Mb     (  26553)
     Largest temporary arrays     est. size (Mb)     dimensions
        Auxiliary wavefunctions         3.42 Mb     (   4667,   48)
        Each subspace H/S matrix        0.04 Mb     (  48,  48)
        Each <psi_i|beta_j> matrix      0.00 Mb     (      9,   12)
        Arrays for rho mixing          17.58 Mb     (  72000,  16)

     Initial potential from superposition of free atoms

     starting charge   21.99998, renormalised to   24.00000
     Starting wfc are   14 randomized atomic wfcs

     total cpu time spent up to now is       42.5 secs

     per-process dynamical memory:    16.3 Mb

     Self-consistent Calculation

     iteration #  1     ecut=   100.00 Ry     beta=0.30
     Davidson diagonalization with overlap
     ethr =  1.00E-02,  avg # of iterations =  2.0

     total cpu time spent up to now is       65.1 secs

     total energy              =    -140.02133883 Ry
     Harris-Foulkes estimate   =    -140.10522362 Ry
     estimated scf accuracy    <       0.46938961 Ry

     iteration #  2     ecut=   100.00 Ry     beta=0.30
     Davidson diagonalization with overlap
     ethr =  1.96E-03,  avg # of iterations =  1.0

     total cpu time spent up to now is       81.2 secs

     total energy              =    -139.85539443 Ry
     Harris-Foulkes estimate   =    -140.02809385 Ry
     estimated scf accuracy    <       0.28658680 Ry

     iteration #  3     ecut=   100.00 Ry     beta=0.30
     Davidson diagonalization with overlap
     ethr =  1.19E-03,  avg # of iterations =  2.0

     total cpu time spent up to now is      103.0 secs

     total energy              =    -139.90618774 Ry
     Harris-Foulkes estimate   =    -139.90859769 Ry
     estimated scf accuracy    <       0.02099911 Ry

     iteration #  4     ecut=   100.00 Ry     beta=0.30
     Davidson diagonalization with overlap
     ethr =  8.75E-05,  avg # of iterations =  1.0

     total cpu time spent up to now is      118.8 secs

     total energy              =    -139.90082865 Ry
     Harris-Foulkes estimate   =    -139.90662985 Ry
     estimated scf accuracy    <       0.01250990 Ry

     iteration #  5     ecut=   100.00 Ry     beta=0.30
     Davidson diagonalization with overlap
     ethr =  5.21E-05,  avg # of iterations =  2.0

     total cpu time spent up to now is      141.0 secs

     total energy              =    -139.90372936 Ry
     Harris-Foulkes estimate   =    -139.90365328 Ry
     estimated scf accuracy    <       0.00282030 Ry

     iteration #  6     ecut=   100.00 Ry     beta=0.30
     Davidson diagonalization with overlap
     ethr =  1.18E-05,  avg # of iterations =  1.0

     total cpu time spent up to now is      157.3 secs

     total energy              =    -139.90246633 Ry
     Harris-Foulkes estimate   =    -139.90374139 Ry
     estimated scf accuracy    <       0.00307562 Ry

     iteration #  7     ecut=   100.00 Ry     beta=0.30
     Davidson diagonalization with overlap
     ethr =  1.18E-05,  avg # of iterations =  2.0

     total cpu time spent up to now is      177.0 secs

     total energy              =    -139.90281118 Ry
     Harris-Foulkes estimate   =    -139.90287650 Ry
     estimated scf accuracy    <       0.00022665 Ry

     iteration #  8     ecut=   100.00 Ry     beta=0.30
     Davidson diagonalization with overlap
     ethr =  9.44E-07,  avg # of iterations =  2.0

     total cpu time spent up to now is      194.4 secs

     total energy              =    -139.90281624 Ry
     Harris-Foulkes estimate   =    -139.90282583 Ry
     estimated scf accuracy    <       0.00003738 Ry

     iteration #  9     ecut=   100.00 Ry     beta=0.30
     Davidson diagonalization with overlap
     ethr =  1.56E-07,  avg # of iterations =  2.0

     total cpu time spent up to now is      213.8 secs

     total energy              =    -139.90281750 Ry
     Harris-Foulkes estimate   =    -139.90282144 Ry
     estimated scf accuracy    <       0.00000708 Ry

     iteration # 10     ecut=   100.00 Ry     beta=0.30
     Davidson diagonalization with overlap
     ethr =  2.95E-08,  avg # of iterations =  2.1

     total cpu time spent up to now is      235.9 secs

     total energy              =    -139.90281835 Ry
     Harris-Foulkes estimate   =    -139.90281991 Ry
     estimated scf accuracy    <       0.00000329 Ry

     iteration # 11     ecut=   100.00 Ry     beta=0.30
     Davidson diagonalization with overlap
     ethr =  1.37E-08,  avg # of iterations =  2.1

     total cpu time spent up to now is      258.4 secs

     End of self-consistent calculation

          k = 0.0833 0.1443 0.0681 (  4615 PWs)   bands (ev):

   -30.3181 -13.3809 -13.0595 -11.6630 -11.3563 -10.5512  -0.2007   1.9107
     4.3152   4.4475   5.4972   5.9647

          k = 0.0833 0.1443 0.2044 (  4630 PWs)   bands (ev):

   -30.3161 -13.6111 -12.8331 -11.6607 -11.2643 -10.6475  -0.0714   1.5317
     4.3693   4.6799   5.4340   5.8655

          k = 0.0833 0.1443 0.3406 (  4635 PWs)   bands (ev):

   -30.3141 -13.7498 -12.6992 -11.6583 -11.1206 -10.7948   0.1396   1.0960
     4.5436   4.7951   5.4253   5.6770

          k = 0.0833 0.3368 0.0681 (  4639 PWs)   bands (ev):

   -30.2671 -13.7195 -12.9360 -11.7845 -11.2100 -10.6489   0.3383   1.4966
     4.2360   4.5243   4.9504   5.8120

          k = 0.0833 0.3368 0.2044 (  4642 PWs)   bands (ev):

   -30.2655 -13.5660 -13.1569 -11.7802 -11.2500 -10.5416   0.2615   1.2005
     4.4542   4.5238   5.1725   5.8077

          k = 0.0833 0.3368 0.3406 (  4630 PWs)   bands (ev):

   -30.2639 -13.4438 -13.3015 -11.7782 -11.2494 -10.5351   0.3248   0.8810
     4.5348   4.8153   5.2297   5.6499

          k = 0.0833 0.5292 0.0681 (  4648 PWs)   bands (ev):

   -30.2292 -14.0129 -12.5518 -11.9274 -11.5505 -10.4572   0.8264   1.2113
     3.5670   4.7855   5.0367   5.6250

          k = 0.0833 0.5292 0.2044 (  4647 PWs)   bands (ev):

   -30.2279 -13.9203 -12.6644 -11.9422 -11.5961 -10.3962   0.5414   1.1517
     3.9882   4.6363   5.1714   5.6518

          k = 0.0833 0.5292 0.3406 (  4639 PWs)   bands (ev):

   -30.2266 -13.8340 -12.7394 -11.9701 -11.6349 -10.3680   0.3565   1.0752
     4.4897   4.5720   5.0951   5.6193

          k = 0.0833-0.4330 0.0681 (  4642 PWs)   bands (ev):

   -30.2431 -13.9485 -12.6409 -11.8645 -11.3724 -10.6172   0.7765   1.2537
     3.8227   4.8543   4.8847   5.5246

          k = 0.0833-0.4330 0.2044 (  4639 PWs)   bands (ev):

   -30.2417 -13.8927 -12.6997 -11.8718 -11.4097 -10.5938   0.8232   0.9034
     4.2589   4.7785   5.0687   5.3341

          k = 0.0833-0.4330 0.3406 (  4636 PWs)   bands (ev):

   -30.2403 -13.7688 -12.8822 -11.8683 -11.4671 -10.4864   0.5089   0.8799
     4.6470   4.8138   4.9303   5.4777

          k = 0.0833-0.2406 0.0681 (  4618 PWs)   bands (ev):

   -30.2945 -13.5654 -12.9908 -11.7180 -11.1389 -10.7440   0.0862   1.7046
     4.4131   4.5934   5.0260   5.7825

          k = 0.0833-0.2406 0.2044 (  4633 PWs)   bands (ev):

   -30.2927 -13.6157 -12.9719 -11.7153 -11.0160 -10.8438   0.1776   1.3221
     4.4751   4.8672   5.1393   5.5885

          k = 0.0833-0.2406 0.3406 (  4640 PWs)   bands (ev):

   -30.2909 -13.6248 -13.0098 -11.7117 -10.9622 -10.8513   0.3115   0.9004
     4.6292   4.8911   5.3159   5.5017

          k = 0.0833-0.0481 0.0681 (  4636 PWs)   bands (ev):

   -30.3317 -13.3500 -12.9800 -11.6347 -11.5185 -10.4418  -0.3558   2.0411
     4.2487   4.3410   5.8132   6.0750

          k = 0.0833-0.0481 0.2044 (  4631 PWs)   bands (ev):

   -30.3296 -13.6597 -12.6229 -11.6326 -11.4632 -10.5574  -0.1912   1.6699
     4.3231   4.5315   5.6505   5.9688

          k = 0.0833-0.0481 0.3406 (  4624 PWs)   bands (ev):

   -30.3275 -13.8343 -12.3972 -11.6308 -11.3680 -10.7179   0.0597   1.2353
     4.4969   4.6729   5.5437   5.7324

          k = 0.2500 0.4330 0.0681 (  4667 PWs)   bands (ev):

   -30.2294 -13.7996 -13.0571 -11.9297 -10.9966 -10.7134   0.8444   1.1879
     3.8321   4.5630   4.7081   5.8906

          k = 0.2500 0.4330 0.2044 (  4643 PWs)   bands (ev):

   -30.2280 -13.7157 -13.1068 -11.9498 -11.0909 -10.6687   0.7646   1.0021
     4.1675   4.5783   4.9222   5.6418

          k = 0.2500 0.4330 0.3406 (  4626 PWs)   bands (ev):

   -30.2266 -13.6052 -13.1852 -11.9669 -11.1666 -10.6438   0.6976   0.8349
     4.5363   4.7324   5.0865   5.2392

          k = 0.2500 0.6255 0.0681 (  4661 PWs)   bands (ev):

   -30.2192 -13.7544 -13.1976 -11.9235 -10.9852 -10.6823   1.0183   1.0617
     3.7054   4.5567   4.6511   5.9646

          k = 0.2500 0.6255 0.2044 (  4640 PWs)   bands (ev):

   -30.2179 -13.6949 -13.1906 -11.9489 -11.0632 -10.6951   0.8774   0.9892
     4.0374   4.6160   4.8050   5.6715

          k = 0.2500 0.6255 0.3406 (  4639 PWs)   bands (ev):

   -30.2166 -13.6181 -13.2023 -11.9731 -11.1437 -10.7041   0.7329   0.9350
     4.5278   4.7159   4.9090   5.2158

          k = 0.2500-0.3368 0.0681 (  4648 PWs)   bands (ev):

   -30.2469 -13.7955 -12.9400 -11.8901 -11.0914 -10.6909   0.5970   1.3408
     4.0272   4.5743   4.8145   5.8135

          k = 0.2500-0.3368 0.2044 (  4636 PWs)   bands (ev):

   -30.2454 -13.6756 -13.0848 -11.8939 -11.1723 -10.5946   0.5046   1.0978
     4.3392   4.5246   5.1009   5.6656

          k = 0.2500-0.3368 0.3406 (  4629 PWs)   bands (ev):

   -30.2440 -13.5398 -13.2267 -11.8985 -11.2133 -10.5649   0.5026   0.8418
     4.5431   4.7469   5.2389   5.4063

          k = 0.2500-0.1443 0.0681 (  4638 PWs)   bands (ev):

   -30.2845 -13.5951 -13.0154 -11.7107 -11.2417 -10.6388   0.1392   1.6279
     4.4330   4.4458   5.0022   5.8891

          k = 0.2500-0.1443 0.2044 (  4624 PWs)   bands (ev):

   -30.2827 -13.4502 -13.2308 -11.7079 -11.2427 -10.5610   0.1147   1.2907
     4.3999   4.7152   5.1206   5.9262

          k = 0.2500-0.1443 0.3406 (  4640 PWs)   bands (ev):

   -30.2810 -13.4897 -13.2142 -11.7054 -11.2028 -10.5908   0.2403   0.9195
     4.5191   4.9208   5.1999   5.7386

          k = 0.4167 0.7217 0.0681 (  4659 PWs)   bands (ev):

   -30.2229 -13.9196 -12.8754 -11.9352 -11.2546 -10.5447   0.9612   1.1131
     3.6111   4.6828   4.8031   5.8186

          k = 0.4167 0.7217 0.2044 (  4642 PWs)   bands (ev):

   -30.2216 -13.8467 -12.9028 -11.9622 -11.3301 -10.5256   0.7198   1.0865
     3.9979   4.6348   4.9717   5.6387

          k = 0.4167 0.7217 0.3406 (  4632 PWs)   bands (ev):

   -30.2202 -13.7635 -12.9407 -11.9896 -11.4005 -10.5108   0.5338   1.0367
     4.5107   4.6193   5.0105   5.3944

          k = 0.4167-0.2406 0.0681 (  4633 PWs)   bands (ev):

   -30.2367 -14.0014 -12.5127 -11.7853 -11.7151 -10.4456   0.6938   1.2876
     3.6383   4.7618   5.1793   5.5577

          k = 0.4167-0.2406 0.2044 (  4637 PWs)   bands (ev):

   -30.2353 -13.8902 -12.7002 -11.7819 -11.7381 -10.3559   0.4207   1.1726
     4.0502   4.5911   5.2695   5.7189

          k = 0.4167-0.2406 0.3406 (  4637 PWs)   bands (ev):

   -30.2339 -13.8055 -12.7920 -11.7825 -11.7786 -10.3311   0.2826   1.0509
     4.5202   4.5468   5.1577   5.7258

          k =-0.0833 0.3368-0.0681 (  4639 PWs)   bands (ev):

   -30.2671 -13.7831 -12.8289 -11.7876 -11.1287 -10.7884   0.4404   1.4742
     4.2416   4.7313   4.8047   5.6189

          k =-0.0833 0.3368-0.2044 (  4642 PWs)   bands (ev):

   -30.2655 -13.7486 -12.8908 -11.7860 -11.1201 -10.7848   0.5105   1.0974
     4.5306   4.8089   5.0646   5.3194

          k =-0.0833 0.3368-0.3406 (  4630 PWs)   bands (ev):

   -30.2639 -13.6235 -13.0815 -11.7809 -11.2027 -10.6373   0.5287   0.7451
     4.6776   4.9004   5.1393   5.4017

          k =-0.0833 0.5292-0.0681 (  4648 PWs)   bands (ev):

   -30.2292 -14.0291 -12.5033 -11.9377 -11.5466 -10.4912   0.9699   1.1093
     3.5653   4.8760   4.9726   5.5408

          k =-0.0833 0.5292-0.2044 (  4647 PWs)   bands (ev):

   -30.2279 -13.9592 -12.5580 -11.9671 -11.5931 -10.4581   0.6940   1.0738
     4.0120   4.7410   5.0766   5.5070

          k =-0.0833 0.5292-0.3406 (  4639 PWs)   bands (ev):

   -30.2266 -13.8585 -12.6801 -11.9847 -11.6348 -10.3964   0.4119   1.0543
     4.5454   4.6272   4.9863   5.5645

          k =-0.0833-0.4330-0.0681 (  4642 PWs)   bands (ev):

   -30.2431 -13.9032 -12.7415 -11.8558 -11.4018 -10.5224   0.6074   1.3318
     3.8153   4.6580   5.0299   5.7183

          k =-0.0833-0.4330-0.2044 (  4639 PWs)   bands (ev):

   -30.2417 -13.7769 -12.9246 -11.8538 -11.4496 -10.4249   0.4071   1.1548
     4.1791   4.5387   5.2261   5.7483

          k =-0.0833-0.4330-0.3406 (  4636 PWs)   bands (ev):

   -30.2403 -13.6877 -13.0170 -11.8590 -11.4799 -10.4103   0.3411   0.9716
     4.5286   4.6183   5.2006   5.6409

          k =-0.0833-0.2406-0.0681 (  4618 PWs)   bands (ev):

   -30.2945 -13.5084 -13.0681 -11.7172 -11.1759 -10.6790   0.0498   1.7055
     4.3993   4.5681   5.0065   5.9027

          k =-0.0833-0.2406-0.2044 (  4633 PWs)   bands (ev):

   -30.2927 -13.5066 -13.1197 -11.7139 -11.1345 -10.6712   0.0923   1.3411
     4.3965   4.8763   5.0587   5.8512

          k =-0.0833-0.2406-0.3406 (  4640 PWs)   bands (ev):

   -30.2909 -13.5762 -13.0771 -11.7111 -11.0564 -10.7308   0.2465   0.9340
     4.5367   4.9648   5.2229   5.6654

          k =-0.0833-0.0481-0.0681 (  4636 PWs)   bands (ev):

   -30.3317 -13.3642 -12.9614 -11.6348 -11.5187 -10.4471  -0.3513   2.0421
     4.2740   4.3152   5.9004   5.9768

          k =-0.0833-0.0481-0.2044 (  4631 PWs)   bands (ev):

   -30.3296 -13.6684 -12.6049 -11.6330 -11.4625 -10.5698  -0.1811   1.6705
     4.3651   4.4871   5.7421   5.8601

          k =-0.0833-0.0481-0.3406 (  4624 PWs)   bands (ev):

   -30.3275 -13.8372 -12.3893 -11.6309 -11.3659 -10.7261   0.0663   1.2339
     4.5585   4.6074   5.5909   5.6807

          k =-0.2500 0.6255-0.0681 (  4661 PWs)   bands (ev):

   -30.2192 -13.7477 -13.2067 -11.9231 -10.9954 -10.6688   0.9621   1.1114
     3.7041   4.5657   4.6432   5.9742

          k =-0.2500 0.6255-0.2044 (  4640 PWs)   bands (ev):

   -30.2179 -13.6784 -13.2126 -11.9476 -11.0782 -10.6735   0.8196   1.0347
     4.0298   4.6075   4.8202   5.6902

          k =-0.2500 0.6255-0.3406 (  4639 PWs)   bands (ev):

   -30.2166 -13.6073 -13.2163 -11.9722 -11.1494 -10.6949   0.7137   0.9485
     4.5202   4.6739   4.9759   5.2068

          k =-0.2500-0.3368-0.0681 (  4648 PWs)   bands (ev):

   -30.2469 -13.8231 -12.8927 -11.8937 -11.0335 -10.7732   0.6628   1.3137
     4.0389   4.6293   4.7630   5.7399

          k =-0.2500-0.3368-0.2044 (  4636 PWs)   bands (ev):

   -30.2454 -13.7518 -12.9688 -11.9016 -11.1054 -10.7102   0.6709   1.0023
     4.3973   4.5945   5.0369   5.4924

          k =-0.2500-0.3368-0.3406 (  4629 PWs)   bands (ev):

   -30.2440 -13.6121 -13.1344 -11.9024 -11.1907 -10.6117   0.6717   0.7057
     4.5918   4.8419   5.1228   5.3270

          k =-0.2500-0.1443-0.0681 (  4638 PWs)   bands (ev):

   -30.2845 -13.6859 -12.8783 -11.7110 -11.1665 -10.7794   0.2303   1.6198
     4.3829   4.6394   4.9734   5.6359

          k =-0.2500-0.1443-0.2044 (  4624 PWs)   bands (ev):

   -30.2827 -13.7011 -12.8921 -11.7085 -11.0600 -10.8694   0.3311   1.2277
     4.5562   4.8982   5.1416   5.3097

          k =-0.2500-0.1443-0.3406 (  4640 PWs)   bands (ev):

   -30.2810 -13.6345 -13.0274 -11.7057 -11.1278 -10.7268   0.4086   0.8233
     4.7768   4.7910   5.2691   5.4224

          k =-0.4167-0.2406-0.0681 (  4633 PWs)   bands (ev):

   -30.2366 -14.0355 -12.4054 -11.7855 -11.7345 -10.5168   0.8957   1.1729
     3.6363   4.9763   5.0827   5.3152

          k =-0.4167-0.2406-0.2044 (  4637 PWs)   bands (ev):

   -30.2353 -13.9735 -12.4768 -11.7824 -11.7822 -10.4867   0.7519   0.9978
     4.1029   4.8836   5.0365   5.3705

          k =-0.4167-0.2406-0.3406 (  4637 PWs)   bands (ev):

   -30.2339 -13.8594 -12.6711 -11.8064 -11.7788 -10.3916   0.4049   1.0005
     4.6517   4.6550   4.9417   5.5897

!    total energy              =    -139.90281885 Ry
     Harris-Foulkes estimate   =    -139.90281944 Ry
     estimated scf accuracy    <       0.00000082 Ry

     The total energy is the sum of the following terms:

     one-electron contribution =     -47.54928532 Ry
     hartree contribution      =      35.95371700 Ry
     xc contribution           =     -26.59828652 Ry
     ewald contribution        =    -101.70896401 Ry

     convergence has been achieved in  11 iterations

     Forces acting on atoms (Ry/au):

     atom    1 type  3   force =     0.00000000    0.00000000    0.00000000
     atom    2 type  2   force =     0.00000000    0.00000000   -0.26814334
     atom    3 type  2   force =     0.00000000   -0.00000000    0.26814334
     atom    4 type  1   force =     0.00000000    0.00000000    0.37778630
     atom    5 type  1   force =     0.00000000   -0.00000000   -0.37778630

     Total force =     0.655169     Total SCF correction =     0.001783


     entering subroutine stress ...

          total   stress  (Ry/bohr**3)                   (kbar)     P=  593.90
   0.00278927   0.00000000   0.00000000        410.32      0.00      0.00
   0.00000000   0.00278927   0.00000000          0.00    410.32      0.00
   0.00000000   0.00000000   0.00653324          0.00      0.00    961.07


     BFGS Geometry Optimization

     number of scf cycles    =   1
     number of bfgs steps    =   0

     enthalpy new            =    -138.7825715049 Ry

     new trust radius        =       0.3777862980 bohr
     new conv_thr            =       0.0000010000 Ry

     new unit-cell volume =    273.01910 a.u.^3 (    40.45726 Ang^3 )

CELL_PARAMETERS (alat=  6.37640000)
   0.967763805  -0.000000000   0.000000000
  -0.483881902   0.838108040   0.000000000
   0.000000000   0.000000000   1.298365575

ATOMIC_POSITIONS (crystal)
Ca       0.000000000   0.000000000   0.000000000
O        0.333333333   0.666666667   0.198623751
O        0.666666667   0.333333333   0.801376249
H        0.333333333   0.666666667   0.482432588
H        0.666666667   0.333333333   0.517567412



     Writing output data file CaOH2_ambient.save
     NEW-OLD atomic charge density approx. for the potential
     NEW k-points:
        k(    1) = (   0.0861092   0.1491454   0.0641833), wk =   0.0370370
        k(    2) = (   0.0861092   0.1491454   0.1925498), wk =   0.0370370
        k(    3) = (   0.0861092   0.1491454   0.3209163), wk =   0.0370370
        k(    4) = (   0.0861092   0.3480060   0.0641833), wk =   0.0370370
        k(    5) = (   0.0861092   0.3480060   0.1925498), wk =   0.0370370
        k(    6) = (   0.0861092   0.3480060   0.3209163), wk =   0.0370370
        k(    7) = (   0.0861092   0.5468666   0.0641833), wk =   0.0370370
        k(    8) = (   0.0861092   0.5468666   0.1925498), wk =   0.0370370
        k(    9) = (   0.0861092   0.5468666   0.3209163), wk =   0.0370370
        k(   10) = (   0.0861092  -0.4474363   0.0641833), wk =   0.0370370
        k(   11) = (   0.0861092  -0.4474363   0.1925498), wk =   0.0370370
        k(   12) = (   0.0861092  -0.4474363   0.3209163), wk =   0.0370370
        k(   13) = (   0.0861092  -0.2485757   0.0641833), wk =   0.0370370
        k(   14) = (   0.0861092  -0.2485757   0.1925498), wk =   0.0370370
        k(   15) = (   0.0861092  -0.2485757   0.3209163), wk =   0.0370370
        k(   16) = (   0.0861092  -0.0497151   0.0641833), wk =   0.0185185
        k(   17) = (   0.0861092  -0.0497151   0.1925498), wk =   0.0185185
        k(   18) = (   0.0861092  -0.0497151   0.3209163), wk =   0.0185185
        k(   19) = (   0.2583275   0.4474363   0.0641833), wk =   0.0370370
        k(   20) = (   0.2583275   0.4474363   0.1925498), wk =   0.0370370
        k(   21) = (   0.2583275   0.4474363   0.3209163), wk =   0.0370370
        k(   22) = (   0.2583275   0.6462969   0.0641833), wk =   0.0370370
        k(   23) = (   0.2583275   0.6462969   0.1925498), wk =   0.0370370
        k(   24) = (   0.2583275   0.6462969   0.3209163), wk =   0.0370370
        k(   25) = (   0.2583275  -0.3480060   0.0641833), wk =   0.0370370
        k(   26) = (   0.2583275  -0.3480060   0.1925498), wk =   0.0370370
        k(   27) = (   0.2583275  -0.3480060   0.3209163), wk =   0.0370370
        k(   28) = (   0.2583275  -0.1491454   0.0641833), wk =   0.0185185
        k(   29) = (   0.2583275  -0.1491454   0.1925498), wk =   0.0185185
        k(   30) = (   0.2583275  -0.1491454   0.3209163), wk =   0.0185185
        k(   31) = (   0.4305458   0.7457272   0.0641833), wk =   0.0370370
        k(   32) = (   0.4305458   0.7457272   0.1925498), wk =   0.0370370
        k(   33) = (   0.4305458   0.7457272   0.3209163), wk =   0.0370370
        k(   34) = (   0.4305458  -0.2485757   0.0641833), wk =   0.0185185
        k(   35) = (   0.4305458  -0.2485757   0.1925498), wk =   0.0185185
        k(   36) = (   0.4305458  -0.2485757   0.3209163), wk =   0.0185185
        k(   37) = (  -0.0861092   0.3480060  -0.0641833), wk =   0.0370370
        k(   38) = (  -0.0861092   0.3480060  -0.1925498), wk =   0.0370370
        k(   39) = (  -0.0861092   0.3480060  -0.3209163), wk =   0.0370370
        k(   40) = (  -0.0861092   0.5468666  -0.0641833), wk =   0.0370370
        k(   41) = (  -0.0861092   0.5468666  -0.1925498), wk =   0.0370370
        k(   42) = (  -0.0861092   0.5468666  -0.3209163), wk =   0.0370370
        k(   43) = (  -0.0861092  -0.4474363  -0.0641833), wk =   0.0370370
        k(   44) = (  -0.0861092  -0.4474363  -0.1925498), wk =   0.0370370
        k(   45) = (  -0.0861092  -0.4474363  -0.3209163), wk =   0.0370370
        k(   46) = (  -0.0861092  -0.2485757  -0.0641833), wk =   0.0370370
        k(   47) = (  -0.0861092  -0.2485757  -0.1925498), wk =   0.0370370
        k(   48) = (  -0.0861092  -0.2485757  -0.3209163), wk =   0.0370370
        k(   49) = (  -0.0861092  -0.0497151  -0.0641833), wk =   0.0185185
        k(   50) = (  -0.0861092  -0.0497151  -0.1925498), wk =   0.0185185
        k(   51) = (  -0.0861092  -0.0497151  -0.3209163), wk =   0.0185185
        k(   52) = (  -0.2583275   0.6462969  -0.0641833), wk =   0.0370370
        k(   53) = (  -0.2583275   0.6462969  -0.1925498), wk =   0.0370370
        k(   54) = (  -0.2583275   0.6462969  -0.3209163), wk =   0.0370370
        k(   55) = (  -0.2583275  -0.3480060  -0.0641833), wk =   0.0370370
        k(   56) = (  -0.2583275  -0.3480060  -0.1925498), wk =   0.0370370
        k(   57) = (  -0.2583275  -0.3480060  -0.3209163), wk =   0.0370370
        k(   58) = (  -0.2583275  -0.1491454  -0.0641833), wk =   0.0185185
        k(   59) = (  -0.2583275  -0.1491454  -0.1925498), wk =   0.0185185
        k(   60) = (  -0.2583275  -0.1491454  -0.3209163), wk =   0.0185185
        k(   61) = (  -0.4305458  -0.2485757  -0.0641833), wk =   0.0185185
        k(   62) = (  -0.4305458  -0.2485757  -0.1925498), wk =   0.0185185
        k(   63) = (  -0.4305458  -0.2485757  -0.3209163), wk =   0.0185185
     extrapolated charge   23.86804, renormalised to   24.00000

     total cpu time spent up to now is      357.5 secs

     per-process dynamical memory:    21.4 Mb

     Self-consistent Calculation

     iteration #  1     ecut=   100.00 Ry     beta=0.30
     Davidson diagonalization with overlap
     ethr =  1.00E-06,  avg # of iterations =  8.0

     total cpu time spent up to now is      414.9 secs

     total energy              =    -139.81345019 Ry
     Harris-Foulkes estimate   =    -140.07904670 Ry
     estimated scf accuracy    <       0.15898693 Ry

     iteration #  2     ecut=   100.00 Ry     beta=0.30
     Davidson diagonalization with overlap
     ethr =  6.62E-04,  avg # of iterations =  1.0

     total cpu time spent up to now is      431.2 secs

     total energy              =    -139.76821275 Ry
     Harris-Foulkes estimate   =    -139.81623171 Ry
     estimated scf accuracy    <       0.09387050 Ry

     iteration #  3     ecut=   100.00 Ry     beta=0.30
     Davidson diagonalization with overlap
     ethr =  3.91E-04,  avg # of iterations =  2.0

     total cpu time spent up to now is      452.1 secs

     total energy              =    -139.78178706 Ry
     Harris-Foulkes estimate   =    -139.78278223 Ry
     estimated scf accuracy    <       0.00547955 Ry

     iteration #  4     ecut=   100.00 Ry     beta=0.30
     Davidson diagonalization with overlap
     ethr =  2.28E-05,  avg # of iterations =  1.1

     total cpu time spent up to now is      468.0 secs

     total energy              =    -139.78015862 Ry
     Harris-Foulkes estimate   =    -139.78201942 Ry
     estimated scf accuracy    <       0.00371688 Ry

     iteration #  5     ecut=   100.00 Ry     beta=0.30
     Davidson diagonalization with overlap
     ethr =  1.55E-05,  avg # of iterations =  3.0

     total cpu time spent up to now is      488.7 secs

     total energy              =    -139.78103985 Ry
     Harris-Foulkes estimate   =    -139.78115114 Ry
     estimated scf accuracy    <       0.00070468 Ry

     iteration #  6     ecut=   100.00 Ry     beta=0.30
     Davidson diagonalization with overlap
     ethr =  2.94E-06,  avg # of iterations =  2.0

     total cpu time spent up to now is      509.3 secs

     total energy              =    -139.78083941 Ry
     Harris-Foulkes estimate   =    -139.78112307 Ry
     estimated scf accuracy    <       0.00058110 Ry

     iteration #  7     ecut=   100.00 Ry     beta=0.30
     Davidson diagonalization with overlap
     ethr =  2.42E-06,  avg # of iterations =  3.0

     total cpu time spent up to now is      531.8 secs

     total energy              =    -139.78096113 Ry
     Harris-Foulkes estimate   =    -139.78097499 Ry
     estimated scf accuracy    <       0.00003607 Ry

     iteration #  8     ecut=   100.00 Ry     beta=0.30
     Davidson diagonalization with overlap
     ethr =  1.50E-07,  avg # of iterations =  2.7

     total cpu time spent up to now is      551.9 secs

     total energy              =    -139.78096569 Ry
     Harris-Foulkes estimate   =    -139.78096646 Ry
     estimated scf accuracy    <       0.00000279 Ry

     iteration #  9     ecut=   100.00 Ry     beta=0.30
     Davidson diagonalization with overlap
     ethr =  1.16E-08,  avg # of iterations =  2.0

     total cpu time spent up to now is      570.2 secs

     End of self-consistent calculation

          k = 0.0861 0.1491 0.0642 (  4615 PWs)   bands (ev):

   -29.6839 -12.3588 -12.0539 -11.0523  -9.7018  -8.3105   0.2224   3.7396
     4.3734   4.6311   5.8325   6.3563

          k = 0.0861 0.1491 0.1925 (  4630 PWs)   bands (ev):

   -29.6828 -12.4861 -11.9709 -11.0512  -9.5467  -8.4451   0.4762   3.1206
     4.4008   4.7057   5.9668   6.3020

          k = 0.0861 0.1491 0.3209 (  4635 PWs)   bands (ev):

   -29.6816 -12.5797 -11.9199 -11.0501  -9.3449  -8.6278   0.8531   2.4368
     4.4721   4.8169   6.0007   6.2108

          k = 0.0861 0.3480 0.0642 (  4639 PWs)   bands (ev):

   -29.5980 -13.0460 -11.9767 -11.2189  -9.2533  -8.3404   0.9174   3.2655
     4.4054   4.7610   5.2153   6.0919

          k = 0.0861 0.3480 0.1925 (  4642 PWs)   bands (ev):

   -29.5971 -12.9901 -12.0637 -11.2178  -9.3366  -8.2054   0.7841   2.7183
     4.6927   4.9087   5.6347   6.0868

          k = 0.0861 0.3480 0.3209 (  4630 PWs)   bands (ev):

   -29.5962 -12.9563 -12.1177 -11.2178  -9.3336  -8.1971   0.8201   2.2921
     4.7673   5.3593   5.6809   6.0174

          k = 0.0861 0.5469 0.0642 (  4648 PWs)   bands (ev):

   -29.5336 -13.5590 -11.5696 -11.3147  -9.7660  -7.8540   1.7562   2.6633
     3.6821   5.0822   5.4031   5.8232

          k = 0.0861 0.5469 0.1925 (  4647 PWs)   bands (ev):

   -29.5330 -13.5240 -11.5840 -11.3278  -9.8501  -7.7762   1.2543   2.4940
     4.3444   5.0350   5.6551   5.9149

          k = 0.0861 0.5469 0.3209 (  4639 PWs)   bands (ev):

   -29.5322 -13.4932 -11.5880 -11.3424  -9.9151  -7.7356   0.9600   2.3578
     4.9267   4.9989   5.8475   5.8595

          k = 0.0861-0.4474 0.0642 (  4642 PWs)   bands (ev):

   -29.5573 -13.3955 -11.7124 -11.2915  -9.4821  -8.1303   1.5825   2.8395
     4.0240   4.9452   5.2599   5.7849

          k = 0.0861-0.4474 0.1925 (  4639 PWs)   bands (ev):

   -29.5566 -13.3681 -11.7377 -11.2967  -9.5243  -8.0996   1.4330   2.4045
     4.6692   5.0322   5.4729   5.6306

          k = 0.0861-0.4474 0.3209 (  4636 PWs)   bands (ev):

   -29.5558 -13.3236 -11.7923 -11.2978  -9.6224  -7.9718   1.0701   2.2318
     4.9989   5.2207   5.5721   5.8164

          k = 0.0861-0.2486 0.0642 (  4618 PWs)   bands (ev):

   -29.6443 -12.6209 -12.1574 -11.1310  -9.1745  -8.5843   0.5922   3.4964
     4.5712   4.7866   5.2600   6.1524

          k = 0.0861-0.2486 0.1925 (  4633 PWs)   bands (ev):

   -29.6433 -12.6139 -12.2004 -11.1300  -9.0034  -8.7301   0.7415   2.8680
     4.5916   4.9498   5.6521   6.0482

          k = 0.0861-0.2486 0.3209 (  4640 PWs)   bands (ev):

   -29.6423 -12.5622 -12.2915 -11.1285  -8.9071  -8.7841   0.8870   2.3193
     4.6586   5.1542   5.7909   6.0367

          k = 0.0861-0.0497 0.0642 (  4636 PWs)   bands (ev):

   -29.7065 -12.4358 -11.5902 -11.0099 -10.1812  -8.1451   0.0314   3.9244
     4.2509   4.4713   6.2154   6.4801

          k = 0.0861-0.0497 0.1925 (  4631 PWs)   bands (ev):

   -29.7054 -12.5662 -11.5103 -11.0089 -10.0145  -8.3007   0.3686   3.2939
     4.2860   4.4861   6.1920   6.4227

          k = 0.0861-0.0497 0.3209 (  4624 PWs)   bands (ev):

   -29.7041 -12.6753 -11.4514 -11.0080  -9.8092  -8.4964   0.8905   2.5039
     4.3609   4.5381   6.1665   6.3038

          k = 0.2583 0.4474 0.0642 (  4667 PWs)   bands (ev):

   -29.5339 -13.2477 -12.2809 -11.3182  -8.9063  -8.3093   1.6905   2.7405
     4.1322   4.7420   4.9461   6.1559

          k = 0.2583 0.4474 0.1925 (  4643 PWs)   bands (ev):

   -29.5332 -13.2135 -12.2889 -11.3348  -9.0040  -8.2468   1.5058   2.3751
     4.5781   4.8853   5.3155   5.9752

          k = 0.2583 0.4474 0.3209 (  4626 PWs)   bands (ev):

   -29.5324 -13.1775 -12.2989 -11.3509  -9.0876  -8.1989   1.3461   2.1264
     4.9614   5.0635   5.5493   5.8221

          k = 0.2583 0.6463 0.0642 (  4661 PWs)   bands (ev):

   -29.5165 -13.2224 -12.4992 -11.2831  -8.8485  -8.2582   2.0189   2.4624
     4.0238   4.7160   4.9008   6.2531

          k = 0.2583 0.6463 0.1925 (  4640 PWs)   bands (ev):

   -29.5158 -13.1964 -12.4890 -11.2984  -8.9154  -8.2565   1.7767   2.2552
     4.3719   4.9539   5.2043   6.0338

          k = 0.2583 0.6463 0.3209 (  4639 PWs)   bands (ev):

   -29.5152 -13.1676 -12.4817 -11.3136  -8.9886  -8.2464   1.5609   2.1047
     4.7370   5.1794   5.4663   5.7728

          k = 0.2583-0.3480 0.0642 (  4648 PWs)   bands (ev):

   -29.5637 -13.1987 -12.0421 -11.3234  -9.0697  -8.3295   1.2925   3.0229
     4.2486   4.8572   5.0214   6.0602

          k = 0.2583-0.3480 0.1925 (  4636 PWs)   bands (ev):

   -29.5630 -13.1533 -12.0886 -11.3322  -9.1811  -8.2055   1.1160   2.5443
     4.7268   4.8591   5.5323   5.9457

          k = 0.2583-0.3480 0.3209 (  4629 PWs)   bands (ev):

   -29.5622 -13.1149 -12.1244 -11.3409  -9.2340  -8.1582   1.0400   2.2030
     4.9051   5.1990   5.7042   5.8740

          k = 0.2583-0.1491 0.0642 (  4638 PWs)   bands (ev):

   -29.6274 -12.8133 -12.0666 -11.1275  -9.3167  -8.3936   0.6450   3.4388
     4.6161   4.6226   5.2696   6.2172

          k = 0.2583-0.1491 0.1925 (  4624 PWs)   bands (ev):

   -29.6264 -12.7489 -12.1733 -11.1260  -9.3481  -8.3008   0.6069   2.8551
     4.5910   5.0139   5.5761   6.2425

          k = 0.2583-0.1491 0.3209 (  4640 PWs)   bands (ev):

   -29.6255 -12.7267 -12.2256 -11.1247  -9.2842  -8.3487   0.7522   2.3518
     4.6596   5.4962   5.5145   6.1246

          k = 0.4305 0.7457 0.0642 (  4659 PWs)   bands (ev):

   -29.5228 -13.4406 -12.0508 -11.2979  -9.3024  -8.0055   1.9629   2.5095
     3.7974   4.8872   5.1686   6.0512

          k = 0.4305 0.7457 0.1925 (  4642 PWs)   bands (ev):

   -29.5221 -13.4110 -12.0474 -11.3143  -9.3784  -7.9724   1.5416   2.3903
     4.3303   5.0096   5.4020   5.9543

          k = 0.4305 0.7457 0.3209 (  4632 PWs)   bands (ev):

   -29.5214 -13.3805 -12.0443 -11.3308  -9.4520  -7.9421   1.2460   2.2730
     4.8274   5.0864   5.6420   5.7998

          k = 0.4305-0.2486 0.0642 (  4633 PWs)   bands (ev):

   -29.5463 -13.5325 -11.4810 -11.2414  -9.9065  -7.8568   1.5150   2.8306
     3.7475   5.1158   5.4322   5.8217

          k = 0.4305-0.2486 0.1925 (  4637 PWs)   bands (ev):

   -29.5456 -13.4925 -11.5279 -11.2395  -9.9914  -7.7468   1.0558   2.5470
     4.4272   4.9744   5.7983   5.9577

          k = 0.4305-0.2486 0.3209 (  4637 PWs)   bands (ev):

   -29.5448 -13.4627 -11.5550 -11.2377 -10.0401  -7.7126   0.8345   2.3550
     4.9379   5.0105   5.8858   5.9678

          k =-0.0861 0.3480-0.0642 (  4639 PWs)   bands (ev):

   -29.5980 -13.0693 -11.9435 -11.2203  -9.1296  -8.5032   1.0776   3.1919
     4.5670   4.7983   5.0104   5.9544

          k =-0.0861 0.3480-0.1925 (  4642 PWs)   bands (ev):

   -29.5971 -13.0426 -11.9911 -11.2205  -9.1277  -8.4931   1.1189   2.5899
     4.7838   5.1931   5.2375   5.8017

          k =-0.0861 0.3480-0.3209 (  4630 PWs)   bands (ev):

   -29.5962 -12.9864 -12.0775 -11.2191  -9.2477  -8.3228   1.0001   2.2126
     4.8568   5.4046   5.5441   5.8766

          k =-0.0861 0.5469-0.0642 (  4648 PWs)   bands (ev):

   -29.5336 -13.5640 -11.5593 -11.3166  -9.7458  -7.8919   1.9333   2.5479
     3.6876   5.0618   5.4560   5.6941

          k =-0.0861 0.5469-0.1925 (  4647 PWs)   bands (ev):

   -29.5330 -13.5345 -11.5610 -11.3329  -9.8145  -7.8479   1.4453   2.4335
     4.3544   5.1033   5.5786   5.7232

          k =-0.0861 0.5469-0.3209 (  4639 PWs)   bands (ev):

   -29.5322 -13.4988 -11.5752 -11.3457  -9.8993  -7.7698   1.0308   2.3466
     4.9570   5.0413   5.7096   5.8354

          k =-0.0861-0.4474-0.0642 (  4642 PWs)   bands (ev):

   -29.5573 -13.3809 -11.7380 -11.2887  -9.5463  -8.0250   1.3404   2.9638
     3.9585   4.9636   5.3076   5.9670

          k =-0.0861-0.4474-0.1925 (  4639 PWs)   bands (ev):

   -29.5566 -13.3368 -11.7921 -11.2909  -9.6360  -7.9045   1.0112   2.5669
     4.5649   4.8918   5.7261   6.0088

          k =-0.0861-0.4474-0.3209 (  4636 PWs)   bands (ev):

   -29.5558 -13.3068 -11.8212 -11.2949  -9.6712  -7.8807   0.8883   2.2916
     4.9068   5.0986   5.8480   5.9386

          k =-0.0861-0.2486-0.0642 (  4618 PWs)   bands (ev):

   -29.6443 -12.5865 -12.1969 -11.1306  -9.2419  -8.4978   0.5320   3.5195
     4.5356   4.7715   5.2964   6.2292

          k =-0.0861-0.2486-0.1925 (  4633 PWs)   bands (ev):

   -29.6433 -12.5209 -12.3035 -11.1292  -9.1949  -8.5007   0.6069   2.9132
     4.5266   5.0508   5.5806   6.2077

          k =-0.0861-0.2486-0.3209 (  4640 PWs)   bands (ev):

   -29.6423 -12.4851 -12.3736 -11.1281  -9.0691  -8.6032   0.8030   2.3592
     4.6066   5.2930   5.6744   6.1198

          k =-0.0861-0.0497-0.0642 (  4636 PWs)   bands (ev):

   -29.7065 -12.4396 -11.5847 -11.0100 -10.1791  -8.1511   0.0392   3.9198
     4.2853   4.4344   6.2670   6.4237

          k =-0.0861-0.0497-0.1925 (  4631 PWs)   bands (ev):

   -29.7054 -12.5717 -11.5020 -11.0091 -10.0081  -8.3142   0.3871   3.2919
     4.3603   4.3903   6.3046   6.3133

          k =-0.0861-0.0497-0.3209 (  4624 PWs)   bands (ev):

   -29.7041 -12.6775 -11.4479 -11.0081  -9.8044  -8.5046   0.9045   2.4973
     4.4014   4.4839   6.2359   6.2416

          k =-0.2583 0.6463-0.0642 (  4661 PWs)   bands (ev):

   -29.5165 -13.2204 -12.5017 -11.2831  -8.8600  -8.2440   1.9799   2.4907
     4.0141   4.8120   4.8174   6.2662

          k =-0.2583 0.6463-0.1925 (  4640 PWs)   bands (ev):

   -29.5158 -13.1922 -12.4943 -11.2983  -8.9351  -8.2315   1.7261   2.2820
     4.3695   4.9723   5.1959   6.0597

          k =-0.2583 0.6463-0.3209 (  4639 PWs)   bands (ev):

   -29.5152 -13.1653 -12.4846 -11.3135  -8.9973  -8.2351   1.5423   2.1121
     4.7354   5.1690   5.4854   5.7812

          k =-0.2583-0.3480-0.0642 (  4648 PWs)   bands (ev):

   -29.5637 -13.2080 -12.0281 -11.3246  -9.0030  -8.4139   1.3859   2.9780
     4.3341   4.7424   5.0483   5.9852

          k =-0.2583-0.3480-0.1925 (  4636 PWs)   bands (ev):

   -29.5630 -13.1738 -12.0582 -11.3350  -9.0827  -8.3395   1.2978   2.4720
     4.8001   4.8958   5.4270   5.7772

          k =-0.2583-0.3480-0.3209 (  4629 PWs)   bands (ev):

   -29.5622 -13.1263 -12.1078 -11.3424  -9.1947  -8.2155   1.1299   2.1654
     4.9403   5.2652   5.5900   5.8095

          k =-0.2583-0.1491-0.0642 (  4638 PWs)   bands (ev):

   -29.6274 -12.8516 -12.0179 -11.1277  -9.1827  -8.5706   0.7939   3.3760
     4.7192   4.7320   5.0647   6.0647

          k =-0.2583-0.1491-0.1925 (  4624 PWs)   bands (ev):

   -29.6264 -12.8389 -12.0625 -11.1264  -9.0605  -8.6747   0.9326   2.7377
     4.8249   4.8477   5.5285   5.9231

          k =-0.2583-0.1491-0.3209 (  4640 PWs)   bands (ev):

   -29.6255 -12.7813 -12.1607 -11.1249  -9.1561  -8.5201   0.9435   2.2632
     4.7812   5.1803   5.7391   5.9607

          k =-0.4305-0.2486-0.0642 (  4633 PWs)   bands (ev):

   -29.5463 -13.5432 -11.4625 -11.2415  -9.8651  -7.9366   1.7986   2.6672
     3.7715   5.2495   5.2813   5.6351

          k =-0.4305-0.2486-0.1925 (  4637 PWs)   bands (ev):

   -29.5456 -13.5152 -11.4880 -11.2397  -9.9186  -7.8985   1.4482   2.4112
     4.4794   5.2094   5.4089   5.6807

          k =-0.4305-0.2486-0.3209 (  4637 PWs)   bands (ev):

   -29.5448 -13.4748 -11.5336 -11.2378 -10.0082  -7.7851   0.9871   2.3207
     5.0274   5.0993   5.6373   5.8574

!    total energy              =    -139.78096584 Ry
     Harris-Foulkes estimate   =    -139.78096593 Ry
     estimated scf accuracy    <       0.00000021 Ry

     The total energy is the sum of the following terms:

     one-electron contribution =     -51.46110407 Ry
     hartree contribution      =      38.38070886 Ry
     xc contribution           =     -26.11114978 Ry
     ewald contribution        =    -100.58942085 Ry

     convergence has been achieved in   9 iterations

     Forces acting on atoms (Ry/au):

     atom    1 type  3   force =     0.00000000    0.00000000    0.00000000
     atom    2 type  2   force =    -0.00000000   -0.00000000    0.36162287
     atom    3 type  2   force =     0.00000000    0.00000000   -0.36162287
     atom    4 type  1   force =     0.00000000    0.00000000   -0.16738818
     atom    5 type  1   force =    -0.00000000   -0.00000000    0.16738818

     Total force =     0.563542     Total SCF correction =     0.001755


     entering subroutine stress ...

          total   stress  (Ry/bohr**3)                   (kbar)     P=  428.63
   0.00454561   0.00000000  -0.00000000        668.68      0.00     -0.00
   0.00000000   0.00454561  -0.00000000          0.00    668.68     -0.00
  -0.00000000   0.00000000  -0.00034998         -0.00      0.00    -51.48


     number of scf cycles    =   2
     number of bfgs steps    =   1

     enthalpy old            =    -138.7825715049 Ry
     enthalpy new            =    -138.6673979730 Ry

     CASE: enthalpy_new > enthalpy_old

     new trust radius        =       0.1625452615 bohr
     new conv_thr            =       0.0000010000 Ry

     new unit-cell volume =    274.18007 a.u.^3 (    40.62929 Ang^3 )

CELL_PARAMETERS (alat=  6.37640000)
   0.986932038  -0.000000000   0.000000000
  -0.493466019   0.854708217   0.000000000
   0.000000000   0.000000000   1.253730207

ATOMIC_POSITIONS (crystal)
Ca       0.000000000   0.000000000   0.000000000
O        0.333333333   0.666666667   0.219064499
O        0.666666667   0.333333333   0.780935501
H        0.333333333   0.666666667   0.453633683
H        0.666666667   0.333333333   0.546366317



     Writing output data file CaOH2_ambient.save
     NEW-OLD atomic charge density approx. for the potential
     NEW k-points:
        k(    1) = (   0.0844367   0.1462487   0.0664683), wk =   0.0370370
        k(    2) = (   0.0844367   0.1462487   0.1994049), wk =   0.0370370
        k(    3) = (   0.0844367   0.1462487   0.3323416), wk =   0.0370370
        k(    4) = (   0.0844367   0.3412471   0.0664683), wk =   0.0370370
        k(    5) = (   0.0844367   0.3412471   0.1994049), wk =   0.0370370
        k(    6) = (   0.0844367   0.3412471   0.3323416), wk =   0.0370370
        k(    7) = (   0.0844367   0.5362454   0.0664683), wk =   0.0370370
        k(    8) = (   0.0844367   0.5362454   0.1994049), wk =   0.0370370
        k(    9) = (   0.0844367   0.5362454   0.3323416), wk =   0.0370370
        k(   10) = (   0.0844367  -0.4387462   0.0664683), wk =   0.0370370
        k(   11) = (   0.0844367  -0.4387462   0.1994049), wk =   0.0370370
        k(   12) = (   0.0844367  -0.4387462   0.3323416), wk =   0.0370370
        k(   13) = (   0.0844367  -0.2437479   0.0664683), wk =   0.0370370
        k(   14) = (   0.0844367  -0.2437479   0.1994049), wk =   0.0370370
        k(   15) = (   0.0844367  -0.2437479   0.3323416), wk =   0.0370370
        k(   16) = (   0.0844367  -0.0487496   0.0664683), wk =   0.0185185
        k(   17) = (   0.0844367  -0.0487496   0.1994049), wk =   0.0185185
        k(   18) = (   0.0844367  -0.0487496   0.3323416), wk =   0.0185185
        k(   19) = (   0.2533102   0.4387462   0.0664683), wk =   0.0370370
        k(   20) = (   0.2533102   0.4387462   0.1994049), wk =   0.0370370
        k(   21) = (   0.2533102   0.4387462   0.3323416), wk =   0.0370370
        k(   22) = (   0.2533102   0.6337445   0.0664683), wk =   0.0370370
        k(   23) = (   0.2533102   0.6337445   0.1994049), wk =   0.0370370
        k(   24) = (   0.2533102   0.6337445   0.3323416), wk =   0.0370370
        k(   25) = (   0.2533102  -0.3412471   0.0664683), wk =   0.0370370
        k(   26) = (   0.2533102  -0.3412471   0.1994049), wk =   0.0370370
        k(   27) = (   0.2533102  -0.3412471   0.3323416), wk =   0.0370370
        k(   28) = (   0.2533102  -0.1462487   0.0664683), wk =   0.0185185
        k(   29) = (   0.2533102  -0.1462487   0.1994049), wk =   0.0185185
        k(   30) = (   0.2533102  -0.1462487   0.3323416), wk =   0.0185185
        k(   31) = (   0.4221837   0.7312437   0.0664683), wk =   0.0370370
        k(   32) = (   0.4221837   0.7312437   0.1994049), wk =   0.0370370
        k(   33) = (   0.4221837   0.7312437   0.3323416), wk =   0.0370370
        k(   34) = (   0.4221837  -0.2437479   0.0664683), wk =   0.0185185
        k(   35) = (   0.4221837  -0.2437479   0.1994049), wk =   0.0185185
        k(   36) = (   0.4221837  -0.2437479   0.3323416), wk =   0.0185185
        k(   37) = (  -0.0844367   0.3412471  -0.0664683), wk =   0.0370370
        k(   38) = (  -0.0844367   0.3412471  -0.1994049), wk =   0.0370370
        k(   39) = (  -0.0844367   0.3412471  -0.3323416), wk =   0.0370370
        k(   40) = (  -0.0844367   0.5362454  -0.0664683), wk =   0.0370370
        k(   41) = (  -0.0844367   0.5362454  -0.1994049), wk =   0.0370370
        k(   42) = (  -0.0844367   0.5362454  -0.3323416), wk =   0.0370370
        k(   43) = (  -0.0844367  -0.4387462  -0.0664683), wk =   0.0370370
        k(   44) = (  -0.0844367  -0.4387462  -0.1994049), wk =   0.0370370
        k(   45) = (  -0.0844367  -0.4387462  -0.3323416), wk =   0.0370370
        k(   46) = (  -0.0844367  -0.2437479  -0.0664683), wk =   0.0370370
        k(   47) = (  -0.0844367  -0.2437479  -0.1994049), wk =   0.0370370
        k(   48) = (  -0.0844367  -0.2437479  -0.3323416), wk =   0.0370370
        k(   49) = (  -0.0844367  -0.0487496  -0.0664683), wk =   0.0185185
        k(   50) = (  -0.0844367  -0.0487496  -0.1994049), wk =   0.0185185
        k(   51) = (  -0.0844367  -0.0487496  -0.3323416), wk =   0.0185185
        k(   52) = (  -0.2533102   0.6337445  -0.0664683), wk =   0.0370370
        k(   53) = (  -0.2533102   0.6337445  -0.1994049), wk =   0.0370370
        k(   54) = (  -0.2533102   0.6337445  -0.3323416), wk =   0.0370370
        k(   55) = (  -0.2533102  -0.3412471  -0.0664683), wk =   0.0370370
        k(   56) = (  -0.2533102  -0.3412471  -0.1994049), wk =   0.0370370
        k(   57) = (  -0.2533102  -0.3412471  -0.3323416), wk =   0.0370370
        k(   58) = (  -0.2533102  -0.1462487  -0.0664683), wk =   0.0185185
        k(   59) = (  -0.2533102  -0.1462487  -0.1994049), wk =   0.0185185
        k(   60) = (  -0.2533102  -0.1462487  -0.3323416), wk =   0.0185185
        k(   61) = (  -0.4221837  -0.2437479  -0.0664683), wk =   0.0185185
        k(   62) = (  -0.4221837  -0.2437479  -0.1994049), wk =   0.0185185
        k(   63) = (  -0.4221837  -0.2437479  -0.3323416), wk =   0.0185185
     extrapolated charge   24.09315, renormalised to   24.00000

     total cpu time spent up to now is      669.5 secs

     per-process dynamical memory:    21.4 Mb

     Self-consistent Calculation

     iteration #  1     ecut=   100.00 Ry     beta=0.30
     Davidson diagonalization with overlap
     ethr =  1.00E-06,  avg # of iterations =  7.1

     total cpu time spent up to now is      724.1 secs

     total energy              =    -139.97258436 Ry
     Harris-Foulkes estimate   =    -139.83112603 Ry
     estimated scf accuracy    <       0.04646838 Ry

     iteration #  2     ecut=   100.00 Ry     beta=0.30
     Davidson diagonalization with overlap
     ethr =  1.94E-04,  avg # of iterations =  1.0

     total cpu time spent up to now is      740.1 secs

     total energy              =    -139.95755858 Ry
     Harris-Foulkes estimate   =    -139.97331775 Ry
     estimated scf accuracy    <       0.02865850 Ry

     iteration #  3     ecut=   100.00 Ry     beta=0.30
     Davidson diagonalization with overlap
     ethr =  1.19E-04,  avg # of iterations =  2.0

     total cpu time spent up to now is      761.4 secs

     total energy              =    -139.96348248 Ry
     Harris-Foulkes estimate   =    -139.96380236 Ry
     estimated scf accuracy    <       0.00304128 Ry

     iteration #  4     ecut=   100.00 Ry     beta=0.30
     Davidson diagonalization with overlap
     ethr =  1.27E-05,  avg # of iterations =  1.0

     total cpu time spent up to now is      777.3 secs

     total energy              =    -139.96224570 Ry
     Harris-Foulkes estimate   =    -139.96351958 Ry
     estimated scf accuracy    <       0.00234970 Ry

     iteration #  5     ecut=   100.00 Ry     beta=0.30
     Davidson diagonalization with overlap
     ethr =  9.79E-06,  avg # of iterations =  2.0

     total cpu time spent up to now is      798.3 secs

     total energy              =    -139.96286813 Ry
     Harris-Foulkes estimate   =    -139.96289346 Ry
     estimated scf accuracy    <       0.00025772 Ry

     iteration #  6     ecut=   100.00 Ry     beta=0.30
     Davidson diagonalization with overlap
     ethr =  1.07E-06,  avg # of iterations =  1.0

     total cpu time spent up to now is      814.2 secs

     total energy              =    -139.96277189 Ry
     Harris-Foulkes estimate   =    -139.96287357 Ry
     estimated scf accuracy    <       0.00018081 Ry

     iteration #  7     ecut=   100.00 Ry     beta=0.30
     Davidson diagonalization with overlap
     ethr =  7.53E-07,  avg # of iterations =  2.0

     total cpu time spent up to now is      835.1 secs

     total energy              =    -139.96281946 Ry
     Harris-Foulkes estimate   =    -139.96282894 Ry
     estimated scf accuracy    <       0.00002674 Ry

     iteration #  8     ecut=   100.00 Ry     beta=0.30
     Davidson diagonalization with overlap
     ethr =  1.11E-07,  avg # of iterations =  2.0

     total cpu time spent up to now is      854.7 secs

     total energy              =    -139.96282228 Ry
     Harris-Foulkes estimate   =    -139.96282274 Ry
     estimated scf accuracy    <       0.00000206 Ry

     iteration #  9     ecut=   100.00 Ry     beta=0.30
     Davidson diagonalization with overlap
     ethr =  8.59E-09,  avg # of iterations =  2.0

     total cpu time spent up to now is      876.7 secs

     End of self-consistent calculation

          k = 0.0844 0.1462 0.0665 (  4615 PWs)   bands (ev):

   -30.0362 -12.7124 -12.4273 -11.3893 -10.6282  -9.4134   0.0519   2.7297
     4.3746   4.5058   5.6320   6.1078

          k = 0.0844 0.1462 0.1994 (  4630 PWs)   bands (ev):

   -30.0347 -12.9193 -12.2608 -11.3876 -10.4656  -9.5516   0.2906   2.1639
     4.4205   4.7052   5.6491   6.0260

          k = 0.0844 0.1462 0.3323 (  4635 PWs)   bands (ev):

   -30.0331 -13.0492 -12.1713 -11.3858 -10.2232  -9.7696   0.7594   1.4210
     4.5511   4.8284   5.6637   5.8812

          k = 0.0844 0.3412 0.0665 (  4639 PWs)   bands (ev):

   -29.9735 -13.2093 -12.3510 -11.5246 -10.2686  -9.5228   0.6377   2.2460
     4.3425   4.6431   5.0459   5.9098

          k = 0.0844 0.3412 0.1994 (  4642 PWs)   bands (ev):

   -29.9723 -13.1070 -12.4988 -11.5217 -10.3524  -9.3821   0.5517   1.8284
     4.5762   4.7111   5.3459   5.9059

          k = 0.0844 0.3412 0.3323 (  4630 PWs)   bands (ev):

   -29.9710 -13.0443 -12.5854 -11.5202 -10.3492  -9.3737   0.6486   1.4102
     4.6585   5.0548   5.4141   5.7804

          k = 0.0844 0.5362 0.0665 (  4648 PWs)   bands (ev):

   -29.9269 -13.6163 -11.9035 -11.6540 -10.6803  -9.2294   1.2746   1.8029
     3.6454   4.9461   5.1636   5.6917

          k = 0.0844 0.5362 0.1994 (  4647 PWs)   bands (ev):

   -29.9259 -13.5551 -11.9465 -11.6641 -10.7846  -9.1423   0.8824   1.7218
     4.1509   4.8146   5.3695   5.7376

          k = 0.0844 0.5362 0.3323 (  4639 PWs)   bands (ev):

   -29.9249 -13.5007 -11.9657 -11.6810 -10.8671  -9.0982   0.6448   1.6215
     4.6809   4.7573   5.3958   5.7022

          k = 0.0844-0.4387 0.0665 (  4642 PWs)   bands (ev):

   -29.9441 -13.5008 -12.0629 -11.5989 -10.4132  -9.4566   1.1851   1.9125
     3.9131   4.9045   5.0694   5.6002

          k = 0.0844-0.4387 0.1994 (  4639 PWs)   bands (ev):

   -29.9430 -13.4577 -12.1036 -11.6024 -10.4703  -9.4180   1.1725   1.5056
     4.4322   4.9027   5.2921   5.3829

          k = 0.0844-0.4387 0.3323 (  4636 PWs)   bands (ev):

   -29.9419 -13.3776 -12.2054 -11.5998 -10.5892  -9.2725   0.8240   1.4195
     4.8241   4.9774   5.1942   5.5930

          k = 0.0844-0.2437 0.0665 (  4618 PWs)   bands (ev):

   -30.0072 -12.9183 -12.4768 -11.4517 -10.2319  -9.6518   0.3704   2.4898
     4.5106   4.6709   5.1162   5.9155

          k = 0.0844-0.2437 0.1994 (  4633 PWs)   bands (ev):

   -30.0058 -12.9490 -12.4876 -11.4498 -10.0672  -9.7841   0.5374   1.9351
     4.5639   4.9128   5.3425   5.7540

          k = 0.0844-0.2437 0.3323 (  4640 PWs)   bands (ev):

   -30.0044 -12.9354 -12.5488 -11.4472  -9.9779  -9.8241   0.8332   1.2838
     4.6825   5.0215   5.4994   5.7091

          k = 0.0844-0.0487 0.0665 (  4636 PWs)   bands (ev):

   -30.0528 -12.7652 -12.0987 -11.3564 -10.9760  -9.2796  -0.1162   2.8853
     4.2875   4.3803   5.9696   6.2241

          k = 0.0844-0.0487 0.1994 (  4631 PWs)   bands (ev):

   -30.0512 -12.9861 -11.8993 -11.3549 -10.8171  -9.4438   0.1831   2.3148
     4.3448   4.5364   5.8643   6.1386

          k = 0.0844-0.0487 0.3323 (  4624 PWs)   bands (ev):

   -30.0495 -13.1409 -11.7787 -11.3535 -10.5772  -9.6775   0.7480   1.5237
     4.4732   4.6454   5.7980   5.9547

          k = 0.2533 0.4387 0.0665 (  4667 PWs)   bands (ev):

   -29.9271 -13.3544 -12.5253 -11.6627  -9.9654  -9.5706   1.2362   1.8380
     3.9744   4.6598   4.8113   5.9786

          k = 0.2533 0.4387 0.1994 (  4643 PWs)   bands (ev):

   -29.9260 -13.2960 -12.5477 -11.6817 -10.0875  -9.4972   1.1158   1.5885
     4.3455   4.7223   5.0870   5.7504

          k = 0.2533 0.4387 0.3323 (  4626 PWs)   bands (ev):

   -29.9250 -13.2297 -12.5790 -11.6989 -10.1849  -9.4493   1.0051   1.3913
     4.7395   4.8878   5.2599   5.4368

          k = 0.2533 0.6337 0.0665 (  4661 PWs)   bands (ev):

   -29.9145 -13.3225 -12.6948 -11.6459  -9.9354  -9.5250   1.4633   1.6495
     3.8569   4.6452   4.7593   6.0602

          k = 0.2533 0.6337 0.1994 (  4640 PWs)   bands (ev):

   -29.9135 -13.2795 -12.6819 -11.6666 -10.0210  -9.5234   1.2892   1.5263
     4.1930   4.7674   4.9719   5.7895

          k = 0.2533 0.6337 0.3323 (  4639 PWs)   bands (ev):

   -29.9126 -13.2292 -12.6763 -11.6867 -10.1116  -9.5155   1.1118   1.4392
     4.6525   4.9060   5.1380   5.3931

          k = 0.2533-0.3412 0.0665 (  4648 PWs)   bands (ev):

   -29.9487 -13.3255 -12.3670 -11.6351 -10.1029  -9.5589   0.9367   2.0486
     4.1486   4.6997   4.9048   5.8974

          k = 0.2533-0.3412 0.1994 (  4636 PWs)   bands (ev):

   -29.9476 -13.2450 -12.4558 -11.6404 -10.2295  -9.4238   0.8166   1.7077
     4.5234   4.6709   5.2746   5.7582

          k = 0.2533-0.3412 0.3323 (  4629 PWs)   bands (ev):

   -29.9465 -13.1717 -12.5289 -11.6459 -10.2877  -9.3770   0.7994   1.3936
     4.7213   4.9460   5.4342   5.5538

          k = 0.2533-0.1462 0.0665 (  4638 PWs)   bands (ev):

   -29.9950 -13.0258 -12.4439 -11.4468 -10.3374  -9.5199   0.4141   2.4042
     4.5367   4.5477   5.0965   6.0049

          k = 0.2533-0.1462 0.1994 (  4624 PWs)   bands (ev):

   -29.9936 -12.9059 -12.6208 -11.4445 -10.3602  -9.4263   0.4100   1.9263
     4.5057   4.8797   5.2852   6.0392

          k = 0.2533-0.1462 0.3323 (  4640 PWs)   bands (ev):

   -29.9923 -12.8924 -12.6670 -11.4426 -10.2940  -9.4729   0.6249   1.4085
     4.6062   5.1730   5.3415   5.8781

          k = 0.4222 0.7312 0.0665 (  4659 PWs)   bands (ev):

   -29.9190 -13.5119 -12.3093 -11.6582 -10.2904  -9.3424   1.4436   1.6690
     3.7167   4.7948   4.9419   5.8976

          k = 0.4222 0.7312 0.1994 (  4642 PWs)   bands (ev):

   -29.9181 -13.4616 -12.3107 -11.6804 -10.3881  -9.3045   1.1088   1.6333
     4.1524   4.8015   5.1504   5.7418

          k = 0.4222 0.7312 0.3323 (  4632 PWs)   bands (ev):

   -29.9171 -13.4082 -12.3140 -11.7026 -10.4811  -9.2724   0.8668   1.5653
     4.6626   4.8176   5.2937   5.5007

          k = 0.4222-0.2437 0.0665 (  4633 PWs)   bands (ev):

   -29.9361 -13.5972 -11.8732 -11.5350 -10.8158  -9.2215   1.0895   1.9296
     3.7139   4.9347   5.2851   5.6377

          k = 0.4222-0.2437 0.1994 (  4637 PWs)   bands (ev):

   -29.9351 -13.5259 -11.9616 -11.5323 -10.9152  -9.1000   0.7265   1.7620
     4.2213   4.7648   5.4793   5.8003

          k = 0.4222-0.2437 0.3323 (  4637 PWs)   bands (ev):

   -29.9340 -13.4734 -12.0069 -11.5297 -10.9791  -9.0629   0.5538   1.6025
     4.7214   4.7304   5.4500   5.8109

          k =-0.0844 0.3412-0.0665 (  4639 PWs)   bands (ev):

   -29.9735 -13.2534 -12.2876 -11.5265 -10.1174  -9.7163   0.7761   2.2106
     4.3699   4.7841   4.9065   5.7317

          k =-0.0844 0.3412-0.1994 (  4642 PWs)   bands (ev):

   -29.9723 -13.2188 -12.3485 -11.5253 -10.1130  -9.7068   0.8826   1.6854
     4.6850   4.9422   5.1552   5.4837

          k =-0.0844 0.3412-0.3323 (  4630 PWs)   bands (ev):

   -29.9710 -13.1222 -12.4881 -11.5219 -10.2604  -9.5056   0.9035   1.2429
     4.7924   5.1349   5.2756   5.5787

          k =-0.0844 0.5362-0.0665 (  4648 PWs)   bands (ev):

   -29.9269 -13.6260 -11.8786 -11.6609 -10.6565  -9.2729   1.4927   1.6396
     3.6406   4.9887   5.1512   5.5917

          k =-0.0844 0.5362-0.1994 (  4647 PWs)   bands (ev):

   -29.9259 -13.5767 -11.8891 -11.6813 -10.7474  -9.2212   1.0820   1.6222
     4.1670   4.9117   5.2744   5.5803

          k =-0.0844 0.5362-0.3323 (  4639 PWs)   bands (ev):

   -29.9249 -13.5129 -11.9329 -11.6912 -10.8528  -9.1345   0.7157   1.5965
     4.7258   4.8077   5.2835   5.6541

          k =-0.0844-0.4387-0.0665 (  4642 PWs)   bands (ev):

   -29.9441 -13.4724 -12.1141 -11.5941 -10.4928  -9.3322   0.9617   2.0168
     3.9055   4.8077   5.1378   5.8018

          k =-0.0844-0.4387-0.1994 (  4639 PWs)   bands (ev):

   -29.9430 -13.3927 -12.2168 -11.5929 -10.5957  -9.2001   0.7031   1.7591
     4.3557   4.6995   5.4251   5.8360

          k =-0.0844-0.4387-0.3323 (  4636 PWs)   bands (ev):

   -29.9419 -13.3395 -12.2689 -11.5951 -10.6390  -9.1752   0.6229   1.5208
     4.7066   4.8210   5.4676   5.7371

          k =-0.0844-0.2437-0.0665 (  4618 PWs)   bands (ev):

   -30.0072 -12.8592 -12.5457 -11.4512 -10.2916  -9.5710   0.3201   2.4941
     4.4881   4.6617   5.1132   6.0206

          k =-0.0844-0.2437-0.1994 (  4633 PWs)   bands (ev):

   -30.0059 -12.8069 -12.6485 -11.4488 -10.2381  -9.5719   0.4159   1.9715
     4.4816   4.9810   5.2565   5.9792

          k =-0.0844-0.2437-0.3323 (  4640 PWs)   bands (ev):

   -30.0044 -12.8670 -12.6262 -11.4468 -10.1170  -9.6646   0.7096   1.3673
     4.5991   5.1433   5.3907   5.8352

          k =-0.0844-0.0487-0.0665 (  4636 PWs)   bands (ev):

   -30.0528 -12.7721 -12.0885 -11.3566 -10.9747  -9.2859  -0.1099   2.8864
     4.3241   4.3411   6.0411   6.1426

          k =-0.0844-0.0487-0.1994 (  4631 PWs)   bands (ev):

   -30.0512 -12.9935 -11.8864 -11.3552 -10.8109  -9.4588   0.1982   2.3139
     4.4027   4.4689   5.9592   6.0328

          k =-0.0844-0.0487-0.3323 (  4624 PWs)   bands (ev):

   -30.0495 -13.1436 -11.7739 -11.3536 -10.5703  -9.6883   0.7633   1.5151
     4.5478   4.5620   5.8528   5.9003

          k =-0.2533 0.6337-0.0665 (  4661 PWs)   bands (ev):

   -29.9145 -13.3185 -12.6998 -11.6457  -9.9501  -9.5077   1.4152   1.6890
     3.8546   4.6813   4.7265   6.0711

          k =-0.2533 0.6337-0.1994 (  4640 PWs)   bands (ev):

   -29.9135 -13.2706 -12.6932 -11.6660 -10.0438  -9.4951   1.2276   1.5711
     4.1871   4.7676   4.9799   5.8102

          k =-0.2533 0.6337-0.3323 (  4639 PWs)   bands (ev):

   -29.9126 -13.2242 -12.6828 -11.6864 -10.1210  -9.5033   1.0898   1.4532
     4.6442   4.8782   5.1970   5.3809

          k =-0.2533-0.3412-0.0665 (  4648 PWs)   bands (ev):

   -29.9487 -13.3435 -12.3396 -11.6374 -10.0112  -9.6693   1.0219   2.0137
     4.1700   4.6961   4.8921   5.8211

          k =-0.2533-0.3412-0.1994 (  4636 PWs)   bands (ev):

   -29.9476 -13.2886 -12.3925 -11.6454 -10.1186  -9.5726   1.0114   1.6054
     4.5950   4.7117   5.2083   5.5802

          k =-0.2533-0.3412-0.3323 (  4629 PWs)   bands (ev):

   -29.9464 -13.2002 -12.4902 -11.6485 -10.2474  -9.4366   0.9222   1.3140
     4.7711   5.0473   5.2669   5.5084

          k =-0.2533-0.1462-0.0665 (  4638 PWs)   bands (ev):

   -29.9950 -13.0966 -12.3527 -11.4471 -10.1973  -9.7072   0.5396   2.3859
     4.5090   4.7110   5.0171   5.7885

          k =-0.2533-0.1462-0.1994 (  4624 PWs)   bands (ev):

   -29.9936 -13.0969 -12.3895 -11.4451 -10.0215  -9.8588   0.7130   1.8202
     4.7054   4.8870   5.2759   5.5526

          k =-0.2533-0.1462-0.3323 (  4640 PWs)   bands (ev):

   -29.9923 -13.0228 -12.5168 -11.4429 -10.1598  -9.6538   0.9098   1.2158
     4.8062   4.9822   5.4537   5.6258

          k =-0.4222-0.2437-0.0665 (  4633 PWs)   bands (ev):

   -29.9361 -13.6180 -11.8329 -11.5352 -10.7682  -9.3134   1.3689   1.7651
     3.7063   5.1612   5.1824   5.3647

          k =-0.4222-0.2437-0.1994 (  4637 PWs)   bands (ev):

   -29.9350 -13.5726 -11.8702 -11.5326 -10.8427  -9.2671   1.1484   1.5466
     4.2636   5.0623   5.1970   5.4523

          k =-0.4222-0.2437-0.3323 (  4637 PWs)   bands (ev):

   -29.9340 -13.4999 -11.9550 -11.5299 -10.9527  -9.1398   0.7089   1.5421
     4.8270   4.8347   5.2342   5.6802

!    total energy              =    -139.96282250 Ry
     Harris-Foulkes estimate   =    -139.96282271 Ry
     estimated scf accuracy    <       0.00000031 Ry

     The total energy is the sum of the following terms:

     one-electron contribution =     -47.95126730 Ry
     hartree contribution      =      36.37549239 Ry
     xc contribution           =     -26.33758930 Ry
     ewald contribution        =    -102.04945830 Ry

     convergence has been achieved in   9 iterations

     Forces acting on atoms (Ry/au):

     atom    1 type  3   force =    -0.00000000    0.00000000   -0.00000000
     atom    2 type  2   force =     0.00000000    0.00000000    0.14663514
     atom    3 type  2   force =     0.00000000    0.00000000   -0.14663514
     atom    4 type  1   force =     0.00000000    0.00000000   -0.00779533
     atom    5 type  1   force =    -0.00000000   -0.00000000    0.00779533

     Total force =     0.207666     Total SCF correction =     0.001868


     entering subroutine stress ...

          total   stress  (Ry/bohr**3)                   (kbar)     P=  451.19
   0.00344781   0.00000000  -0.00000000        507.19      0.00     -0.00
   0.00000000   0.00344781   0.00000000          0.00    507.19      0.00
  -0.00000000   0.00000000   0.00230583         -0.00      0.00    339.20


     number of scf cycles    =   3
     number of bfgs steps    =   1

     enthalpy old            =    -138.7825715049 Ry
     enthalpy new            =    -138.8445193948 Ry

     CASE: enthalpy_new < enthalpy_old

     new trust radius        =       0.0810539898 bohr
     new conv_thr            =       0.0000010000 Ry

     new unit-cell volume =    257.42574 a.u.^3 (    38.14656 Ang^3 )

CELL_PARAMETERS (alat=  6.37640000)
   0.968224663  -0.000000000   0.000000000
  -0.484112331   0.838507155   0.000000000
  -0.000000000   0.000000000   1.223044894

ATOMIC_POSITIONS (crystal)
Ca      -0.000000000   0.000000000   0.000000000
O        0.333333333   0.666666667   0.229057384
O        0.666666667   0.333333333   0.770942616
H        0.333333333   0.666666667   0.461112358
H        0.666666667   0.333333333   0.538887642



     Writing output data file CaOH2_ambient.save
     NEW-OLD atomic charge density approx. for the potential
     NEW k-points:
        k(    1) = (   0.0860682   0.1490745   0.0681360), wk =   0.0370370
        k(    2) = (   0.0860682   0.1490745   0.2044079), wk =   0.0370370
        k(    3) = (   0.0860682   0.1490745   0.3406798), wk =   0.0370370
        k(    4) = (   0.0860682   0.3478404   0.0681360), wk =   0.0370370
        k(    5) = (   0.0860682   0.3478404   0.2044079), wk =   0.0370370
        k(    6) = (   0.0860682   0.3478404   0.3406798), wk =   0.0370370
        k(    7) = (   0.0860682   0.5466063   0.0681360), wk =   0.0370370
        k(    8) = (   0.0860682   0.5466063   0.2044079), wk =   0.0370370
        k(    9) = (   0.0860682   0.5466063   0.3406798), wk =   0.0370370
        k(   10) = (   0.0860682  -0.4472234   0.0681360), wk =   0.0370370
        k(   11) = (   0.0860682  -0.4472234   0.2044079), wk =   0.0370370
        k(   12) = (   0.0860682  -0.4472234   0.3406798), wk =   0.0370370
        k(   13) = (   0.0860682  -0.2484574   0.0681360), wk =   0.0370370
        k(   14) = (   0.0860682  -0.2484574   0.2044079), wk =   0.0370370
        k(   15) = (   0.0860682  -0.2484574   0.3406798), wk =   0.0370370
        k(   16) = (   0.0860682  -0.0496915   0.0681360), wk =   0.0185185
        k(   17) = (   0.0860682  -0.0496915   0.2044079), wk =   0.0185185
        k(   18) = (   0.0860682  -0.0496915   0.3406798), wk =   0.0185185
        k(   19) = (   0.2582045   0.4472234   0.0681360), wk =   0.0370370
        k(   20) = (   0.2582045   0.4472234   0.2044079), wk =   0.0370370
        k(   21) = (   0.2582045   0.4472234   0.3406798), wk =   0.0370370
        k(   22) = (   0.2582045   0.6459893   0.0681360), wk =   0.0370370
        k(   23) = (   0.2582045   0.6459893   0.2044079), wk =   0.0370370
        k(   24) = (   0.2582045   0.6459893   0.3406798), wk =   0.0370370
        k(   25) = (   0.2582045  -0.3478404   0.0681360), wk =   0.0370370
        k(   26) = (   0.2582045  -0.3478404   0.2044079), wk =   0.0370370
        k(   27) = (   0.2582045  -0.3478404   0.3406798), wk =   0.0370370
        k(   28) = (   0.2582045  -0.1490745   0.0681360), wk =   0.0185185
        k(   29) = (   0.2582045  -0.1490745   0.2044079), wk =   0.0185185
        k(   30) = (   0.2582045  -0.1490745   0.3406798), wk =   0.0185185
        k(   31) = (   0.4303409   0.7453723   0.0681360), wk =   0.0370370
        k(   32) = (   0.4303409   0.7453723   0.2044079), wk =   0.0370370
        k(   33) = (   0.4303409   0.7453723   0.3406798), wk =   0.0370370
        k(   34) = (   0.4303409  -0.2484574   0.0681360), wk =   0.0185185
        k(   35) = (   0.4303409  -0.2484574   0.2044079), wk =   0.0185185
        k(   36) = (   0.4303409  -0.2484574   0.3406798), wk =   0.0185185
        k(   37) = (  -0.0860682   0.3478404  -0.0681360), wk =   0.0370370
        k(   38) = (  -0.0860682   0.3478404  -0.2044079), wk =   0.0370370
        k(   39) = (  -0.0860682   0.3478404  -0.3406798), wk =   0.0370370
        k(   40) = (  -0.0860682   0.5466063  -0.0681360), wk =   0.0370370
        k(   41) = (  -0.0860682   0.5466063  -0.2044079), wk =   0.0370370
        k(   42) = (  -0.0860682   0.5466063  -0.3406798), wk =   0.0370370
        k(   43) = (  -0.0860682  -0.4472234  -0.0681360), wk =   0.0370370
        k(   44) = (  -0.0860682  -0.4472234  -0.2044079), wk =   0.0370370
        k(   45) = (  -0.0860682  -0.4472234  -0.3406798), wk =   0.0370370
        k(   46) = (  -0.0860682  -0.2484574  -0.0681360), wk =   0.0370370
        k(   47) = (  -0.0860682  -0.2484574  -0.2044079), wk =   0.0370370
        k(   48) = (  -0.0860682  -0.2484574  -0.3406798), wk =   0.0370370
        k(   49) = (  -0.0860682  -0.0496915  -0.0681360), wk =   0.0185185
        k(   50) = (  -0.0860682  -0.0496915  -0.2044079), wk =   0.0185185
        k(   51) = (  -0.0860682  -0.0496915  -0.3406798), wk =   0.0185185
        k(   52) = (  -0.2582045   0.6459893  -0.0681360), wk =   0.0370370
        k(   53) = (  -0.2582045   0.6459893  -0.2044079), wk =   0.0370370
        k(   54) = (  -0.2582045   0.6459893  -0.3406798), wk =   0.0370370
        k(   55) = (  -0.2582045  -0.3478404  -0.0681360), wk =   0.0370370
        k(   56) = (  -0.2582045  -0.3478404  -0.2044079), wk =   0.0370370
        k(   57) = (  -0.2582045  -0.3478404  -0.3406798), wk =   0.0370370
        k(   58) = (  -0.2582045  -0.1490745  -0.0681360), wk =   0.0185185
        k(   59) = (  -0.2582045  -0.1490745  -0.2044079), wk =   0.0185185
        k(   60) = (  -0.2582045  -0.1490745  -0.3406798), wk =   0.0185185
        k(   61) = (  -0.4303409  -0.2484574  -0.0681360), wk =   0.0185185
        k(   62) = (  -0.4303409  -0.2484574  -0.2044079), wk =   0.0185185
        k(   63) = (  -0.4303409  -0.2484574  -0.3406798), wk =   0.0185185
     extrapolated charge   22.56815, renormalised to   24.00000

     total cpu time spent up to now is      975.9 secs

     per-process dynamical memory:    21.4 Mb

     Self-consistent Calculation

     iteration #  1     ecut=   100.00 Ry     beta=0.30
     Davidson diagonalization with overlap
     ethr =  1.00E-06,  avg # of iterations =  6.0

     total cpu time spent up to now is     1021.8 secs

     total energy              =    -139.73567051 Ry
     Harris-Foulkes estimate   =    -142.01774974 Ry
     estimated scf accuracy    <       0.26835488 Ry

     iteration #  2     ecut=   100.00 Ry     beta=0.30
     Davidson diagonalization with overlap
     ethr =  1.12E-03,  avg # of iterations =  3.0

     total cpu time spent up to now is     1046.9 secs

     total energy              =    -139.93034038 Ry
     Harris-Foulkes estimate   =    -139.93587548 Ry
     estimated scf accuracy    <       0.03546994 Ry

     iteration #  3     ecut=   100.00 Ry     beta=0.30
     Davidson diagonalization with overlap
     ethr =  1.48E-04,  avg # of iterations =  1.0

     total cpu time spent up to now is     1063.1 secs

     total energy              =    -139.91971607 Ry
     Harris-Foulkes estimate   =    -139.93116568 Ry
     estimated scf accuracy    <       0.01959704 Ry

     iteration #  4     ecut=   100.00 Ry     beta=0.30
     Davidson diagonalization with overlap
     ethr =  8.17E-05,  avg # of iterations =  2.0

     total cpu time spent up to now is     1084.8 secs

     total energy              =    -139.92645528 Ry
     Harris-Foulkes estimate   =    -139.92702996 Ry
     estimated scf accuracy    <       0.00358946 Ry

     iteration #  5     ecut=   100.00 Ry     beta=0.30
     Davidson diagonalization with overlap
     ethr =  1.50E-05,  avg # of iterations =  1.0

     total cpu time spent up to now is     1100.9 secs

     total energy              =    -139.92541848 Ry
     Harris-Foulkes estimate   =    -139.92652854 Ry
     estimated scf accuracy    <       0.00204526 Ry

     iteration #  6     ecut=   100.00 Ry     beta=0.30
     Davidson diagonalization with overlap
     ethr =  8.52E-06,  avg # of iterations =  2.0

     total cpu time spent up to now is     1122.8 secs

     total energy              =    -139.92597431 Ry
     Harris-Foulkes estimate   =    -139.92600785 Ry
     estimated scf accuracy    <       0.00013145 Ry

     iteration #  7     ecut=   100.00 Ry     beta=0.30
     Davidson diagonalization with overlap
     ethr =  5.48E-07,  avg # of iterations =  2.0

     total cpu time spent up to now is     1140.2 secs

     total energy              =    -139.92597120 Ry
     Harris-Foulkes estimate   =    -139.92598180 Ry
     estimated scf accuracy    <       0.00004409 Ry

     iteration #  8     ecut=   100.00 Ry     beta=0.30
     Davidson diagonalization with overlap
     ethr =  1.84E-07,  avg # of iterations =  2.0

     total cpu time spent up to now is     1158.1 secs

     total energy              =    -139.92597021 Ry
     Harris-Foulkes estimate   =    -139.92597455 Ry
     estimated scf accuracy    <       0.00001012 Ry

     iteration #  9     ecut=   100.00 Ry     beta=0.30
     Davidson diagonalization with overlap
     ethr =  4.22E-08,  avg # of iterations =  2.0

     total cpu time spent up to now is     1179.0 secs

     End of self-consistent calculation

          k = 0.0861 0.1491 0.0681 (  4615 PWs)   bands (ev):

   -29.2256 -12.1751 -11.8595 -10.5526  -9.9559  -8.6479   0.6266   3.3166
     5.0199   5.1658   6.3297   6.8322

          k = 0.0861 0.1491 0.2044 (  4630 PWs)   bands (ev):

   -29.2232 -12.4585 -11.6151 -10.5502  -9.7796  -8.8001   0.8586   2.7398
     5.0697   5.4156   6.3091   6.7427

          k = 0.0861 0.1491 0.3407 (  4635 PWs)   bands (ev):

   -29.2208 -12.6259 -11.4886 -10.5477  -9.5061  -9.0478   1.3205   1.9875
     5.2345   5.5542   6.3109   6.5663

          k = 0.0861 0.3478 0.0681 (  4639 PWs)   bands (ev):

   -29.1476 -12.6851 -11.7382 -10.7087  -9.6228  -8.8244   1.2347   2.7852
     4.9724   5.2891   5.7446   6.6465

          k = 0.0861 0.3478 0.2044 (  4642 PWs)   bands (ev):

   -29.1457 -12.5407 -11.9588 -10.7046  -9.6931  -8.6615   1.1103   2.3610
     5.1893   5.3663   6.0814   6.6607

          k = 0.0861 0.3478 0.3407 (  4630 PWs)   bands (ev):

   -29.1439 -12.4422 -12.0933 -10.7026  -9.6811  -8.6540   1.1845   1.9626
     5.2646   5.6973   6.1744   6.5331

          k = 0.0861 0.5466 0.0681 (  4648 PWs)   bands (ev):

[...]

     Largest allocated arrays     est. size (Mb)     dimensions
        Kohn-Sham Wavefunctions         0.74 Mb     (   4038,   12)
        NL pseudopotentials             0.55 Mb     (   4038,    9)
        Each V/rho on FFT grid          0.89 Mb     (  58320)
        Each G-vector array             0.18 Mb     (  22943)
        G-vector shells                 0.01 Mb     (   1110)
     Largest temporary arrays     est. size (Mb)     dimensions
        Auxiliary wavefunctions         2.96 Mb     (   4038,   48)
        Each subspace H/S matrix        0.04 Mb     (  48,  48)
        Each <psi_i|beta_j> matrix      0.00 Mb     (      9,   12)
        Arrays for rho mixing          14.24 Mb     (  58320,  16)

     Initial potential from superposition of free atoms

     starting charge   21.99998, renormalised to   24.00000
     Starting wfc are   14 randomized atomic wfcs

     Writing output data file CaOH2_ambient.save

     total cpu time spent up to now is     5050.3 secs

     per-process dynamical memory:    19.5 Mb

     Self-consistent Calculation

     iteration #  1     ecut=   100.00 Ry     beta=0.30
     Davidson diagonalization with overlap
     ethr =  1.00E-06,  avg # of iterations =  6.1

     total cpu time spent up to now is     5076.6 secs

     total energy              =    -140.02925074 Ry
     Harris-Foulkes estimate   =    -140.10148452 Ry
     estimated scf accuracy    <       0.40028972 Ry

     iteration #  2     ecut=   100.00 Ry     beta=0.30
     Davidson diagonalization with overlap
     ethr =  1.67E-03,  avg # of iterations =  1.0

     total cpu time spent up to now is     5084.3 secs

     total energy              =    -139.87443777 Ry
     Harris-Foulkes estimate   =    -140.03253041 Ry
     estimated scf accuracy    <       0.25118882 Ry

     iteration #  3     ecut=   100.00 Ry     beta=0.30
     Davidson diagonalization with overlap
     ethr =  1.05E-03,  avg # of iterations =  2.0

     total cpu time spent up to now is     5094.8 secs

     total energy              =    -139.91512626 Ry
     Harris-Foulkes estimate   =    -139.91787733 Ry
     estimated scf accuracy    <       0.01210616 Ry

     iteration #  4     ecut=   100.00 Ry     beta=0.30
     Davidson diagonalization with overlap
     ethr =  5.04E-05,  avg # of iterations =  1.8

     total cpu time spent up to now is     5103.0 secs

     total energy              =    -139.91469249 Ry
     Harris-Foulkes estimate   =    -139.91584236 Ry
     estimated scf accuracy    <       0.00256306 Ry

     iteration #  5     ecut=   100.00 Ry     beta=0.30
     Davidson diagonalization with overlap
     ethr =  1.07E-05,  avg # of iterations =  2.0

     total cpu time spent up to now is     5112.6 secs

     total energy              =    -139.91501465 Ry
     Harris-Foulkes estimate   =    -139.91508690 Ry
     estimated scf accuracy    <       0.00044510 Ry

     iteration #  6     ecut=   100.00 Ry     beta=0.30
     Davidson diagonalization with overlap
     ethr =  1.85E-06,  avg # of iterations =  1.0

     total cpu time spent up to now is     5120.3 secs

     total energy              =    -139.91496697 Ry
     Harris-Foulkes estimate   =    -139.91503219 Ry
     estimated scf accuracy    <       0.00018833 Ry

     iteration #  7     ecut=   100.00 Ry     beta=0.30
     Davidson diagonalization with overlap
     ethr =  7.85E-07,  avg # of iterations =  3.0

     total cpu time spent up to now is     5131.3 secs

     total energy              =    -139.91502888 Ry
     Harris-Foulkes estimate   =    -139.91504883 Ry
     estimated scf accuracy    <       0.00008133 Ry

     iteration #  8     ecut=   100.00 Ry     beta=0.30
     Davidson diagonalization with overlap
     ethr =  3.39E-07,  avg # of iterations =  1.0

     total cpu time spent up to now is     5140.0 secs

     total energy              =    -139.91501826 Ry
     Harris-Foulkes estimate   =    -139.91503226 Ry
     estimated scf accuracy    <       0.00002857 Ry

     iteration #  9     ecut=   100.00 Ry     beta=0.30
     Davidson diagonalization with overlap
     ethr =  1.19E-07,  avg # of iterations =  2.0

     total cpu time spent up to now is     5150.1 secs

     total energy              =    -139.91502496 Ry
     Harris-Foulkes estimate   =    -139.91502498 Ry
     estimated scf accuracy    <       0.00000024 Ry

     iteration # 10     ecut=   100.00 Ry     beta=0.30
     Davidson diagonalization with overlap
     ethr =  9.91E-10,  avg # of iterations =  2.0

     total cpu time spent up to now is     5159.6 secs

     total energy              =    -139.91502499 Ry
     Harris-Foulkes estimate   =    -139.91502500 Ry
     estimated scf accuracy    <       0.00000009 Ry

     iteration # 11     ecut=   100.00 Ry     beta=0.30
     Davidson diagonalization with overlap
     ethr =  3.93E-10,  avg # of iterations =  2.0

     total cpu time spent up to now is     5170.0 secs

     total energy              =    -139.91502499 Ry
     Harris-Foulkes estimate   =    -139.91502500 Ry
     estimated scf accuracy    <       0.00000003 Ry

     iteration # 12     ecut=   100.00 Ry     beta=0.30
     Davidson diagonalization with overlap
     ethr =  1.37E-10,  avg # of iterations =  2.0

     total cpu time spent up to now is     5179.9 secs

     End of self-consistent calculation

          k = 0.0851 0.1473 0.0755 (  3995 PWs)   bands (ev):

   -28.5679 -11.2393 -10.6803  -9.8891  -9.3323  -7.3867   2.4338   4.2480
     6.0253   6.2536   7.7182   8.2551

          k = 0.0851 0.1473 0.2264 (  4001 PWs)   bands (ev):

   -28.5604 -11.6187 -10.4417  -9.8813  -9.0117  -7.5658   2.3373   3.7562
     6.1253   6.6955   7.4815   8.1443

          k = 0.0851 0.1473 0.3773 (  4018 PWs)   bands (ev):

   -28.5529 -11.8634 -10.3296  -9.8734  -8.5716  -7.8742   2.3243   3.2449
     6.4649   6.9512   7.3092   7.8360

          k = 0.0851 0.3438 0.0755 (  4014 PWs)   bands (ev):

   -28.5055 -11.6488 -10.6116 -10.0157  -8.8340  -7.7394   2.8136   3.5754
     5.9849   6.3881   7.2759   8.2243

          k = 0.0851 0.3438 0.2264 (  4017 PWs)   bands (ev):

   -28.4993 -11.4489 -10.9182 -10.0048  -8.9051  -7.5511   2.4307   3.1105
     5.9964   6.6891   7.7035   8.2401

          k = 0.0851 0.3438 0.3773 (  4019 PWs)   bands (ev):

   -28.4931 -11.3025 -11.1078  -9.9951  -8.8952  -7.5551   2.2518   2.7761
     6.1077   6.8941   7.8868   8.0814

          k = 0.0851 0.5402 0.0755 (  4023 PWs)   bands (ev):

   -28.4590 -11.9736 -10.2999 -10.1064  -8.8700  -7.8140   3.0108   3.2437
     5.5753   6.4532   7.4961   8.1074

          k = 0.0851 0.5402 0.2264 (  4030 PWs)   bands (ev):

   -28.4539 -11.7882 -10.4093 -10.1292  -9.1511  -7.6428   2.5994   2.9366
     5.9508   6.4795   7.7245   8.1762

          k = 0.0851 0.5402 0.3773 (  4014 PWs)   bands (ev):

   -28.4486 -11.5916 -10.4780 -10.1555  -9.3987  -7.5720   2.1910   2.8672
     5.9451   6.9762   7.6728   8.1553

          k = 0.0851-0.4420 0.0755 (  4020 PWs)   bands (ev):

   -28.4761 -11.9083 -10.3406 -10.0872  -8.5530  -8.1433   3.0952   3.4839
     5.6421   6.5672   7.2439   7.9241

          k = 0.0851-0.4420 0.2264 (  4017 PWs)   bands (ev):

   -28.4705 -11.7941 -10.4266 -10.0954  -8.7405  -8.0401   2.9368   2.9743
     6.1387   6.6483   7.3433   7.8223

          k = 0.0851-0.4420 0.3773 (  4025 PWs)   bands (ev):

   -28.4650 -11.5694 -10.6707 -10.0760  -9.0797  -7.7124   2.3821   2.7939
     6.1431   6.9841   7.5387   7.9851

          k = 0.0851-0.2456 0.0755 (  4004 PWs)   bands (ev):

   -28.5391 -11.4740 -10.6328  -9.9498  -8.9725  -7.6807   2.6781   4.0158
     6.0804   6.4099   7.2941   8.0625

          k = 0.0851-0.2456 0.2264 (  4011 PWs)   bands (ev):

   -28.5322 -11.5888 -10.6410  -9.9410  -8.7349  -7.8019   2.5118   3.4969
     6.2300   6.7860   7.3774   7.8864

          k = 0.0851-0.2456 0.3773 (  4026 PWs)   bands (ev):

   -28.5253 -11.6716 -10.6728  -9.9298  -8.5920  -7.8169   2.3700   2.9673
     6.5514   6.6842   7.5562   7.9233

          k = 0.0851-0.0491 0.0755 (  3999 PWs)   bands (ev):

   -28.5845 -11.1544 -10.5677  -9.8572  -9.6092  -7.2306   2.2995   4.3900
     5.9796   6.1344   8.0227   8.3750

          k = 0.0851-0.0491 0.2264 (  3989 PWs)   bands (ev):

   -28.5766 -11.6792 -10.1640  -9.8502  -9.2571  -7.4701   2.2753   3.9339
     6.1201   6.5215   7.6622   8.1644

          k = 0.0851-0.0491 0.3773 (  4014 PWs)   bands (ev):

   -28.5688 -11.9772 -10.0406  -9.8436  -8.6323  -7.9339   2.3351   3.4489
     6.4960   7.0568   7.1684   7.6519

          k = 0.2552 0.4420 0.0755 (  4038 PWs)   bands (ev):

   -28.4592 -11.7390 -10.8217 -10.1168  -8.3064  -8.0617   3.0637   3.2160
     5.2970   6.8123   7.0663   8.3977

          k = 0.2552 0.4420 0.2264 (  4017 PWs)   bands (ev):

   -28.4539 -11.5795 -10.8347 -10.1852  -8.6046  -7.9419   2.8176   2.8869
     5.7132   6.8676   7.3680   8.1356

          k = 0.2552 0.4420 0.3773 (  4022 PWs)   bands (ev):

   -28.4487 -11.3538 -10.9229 -10.2297  -8.8297  -7.9108   2.6012   2.6393
     6.1188   6.9191   7.6088   7.8319

          k = 0.2552 0.6385 0.0755 (  4038 PWs)   bands (ev):

   -28.4467 -11.6785 -11.0200 -10.0939  -8.2357  -8.0524   3.0771   3.1127
     5.1092   6.8813   7.0921   8.4949

          k = 0.2552 0.6385 0.2264 (  4027 PWs)   bands (ev):

   -28.4417 -11.5428 -10.9501 -10.1686  -8.5017  -8.0599   2.8199   2.9257
     5.5364   6.9948   7.2720   8.1573

          k = 0.2552 0.6385 0.3773 (  4014 PWs)   bands (ev):

   -28.4367 -11.3679 -10.9026 -10.2397  -8.7590  -8.0927   2.5828   2.7769
     6.0499   7.0963   7.4005   7.7299

          k = 0.2552-0.3438 0.0755 (  4027 PWs)   bands (ev):

   -28.4807 -11.7378 -10.6370 -10.1090  -8.5737  -7.9066   2.9664   3.3823
     5.6442   6.5998   7.1501   8.2865

          k = 0.2552-0.3438 0.2264 (  4018 PWs)   bands (ev):

   -28.4750 -11.5459 -10.8220 -10.1266  -8.7767  -7.7266   2.6266   2.9737
     5.9266   6.7005   7.6007   8.1319

          k = 0.2552-0.3438 0.3773 (  4017 PWs)   bands (ev):

   -28.4694 -11.2680 -11.0787 -10.1276  -8.8922  -7.6879   2.4018   2.6855
     6.1446   6.8339   7.8593   7.9354

          k = 0.2552-0.1473 0.0755 (  4006 PWs)   bands (ev):

   -28.5268 -11.5063 -10.6837  -9.9445  -8.9906  -7.6165   2.6726   3.7795
     6.0809   6.3548   7.3304   8.2602

          k = 0.2552-0.1473 0.2264 (  4006 PWs)   bands (ev):

   -28.5202 -11.4030 -10.9328  -9.9350  -8.9361  -7.4948   2.3390   3.2748
     5.9865   6.7711   7.6171   8.3399

          k = 0.2552-0.1473 0.3773 (  4026 PWs)   bands (ev):

   -28.5136 -11.5020 -10.9063  -9.9264  -8.8162  -7.5643   2.2255   2.8804
     6.1233   6.9621   7.8232   8.0592

          k = 0.4253 0.7367 0.0755 (  4032 PWs)   bands (ev):

   -28.4512 -11.8669 -10.6576 -10.1047  -8.5334  -7.9195   3.0360   3.2042
     5.2847   6.6832   7.2670   8.3323

          k = 0.4253 0.7367 0.2264 (  4026 PWs)   bands (ev):

   -28.4461 -11.7105 -10.6303 -10.1819  -8.8175  -7.8507   2.7266   2.9560
     5.7157   6.7327   7.4672   8.1649

          k = 0.4253 0.7367 0.3773 (  4011 PWs)   bands (ev):

   -28.4410 -11.5232 -10.6073 -10.2613  -9.0929  -7.8134   2.3783   2.8569
     6.0129   7.0175   7.5088   7.9298

          k = 0.4253-0.2456 0.0755 (  4008 PWs)   bands (ev):

   -28.4681 -11.9604 -10.2638 -10.0303  -9.0099  -7.7590   3.0051   3.2316
     5.8114   6.2915   7.6601   7.9700

          k = 0.4253-0.2456 0.2264 (  4026 PWs)   bands (ev):

   -28.4628 -11.7502 -10.4968 -10.0189  -9.2504  -7.5250   2.4971   2.9227
     6.0359   6.4170   7.8781   8.2121

          k = 0.4253-0.2456 0.3773 (  4023 PWs)   bands (ev):

   -28.4574 -11.5515 -10.6413 -10.0079  -9.4343  -7.4686   2.1206   2.8335
     5.9214   6.9590   7.7949   8.2542

          k =-0.0851 0.3438-0.0755 (  4014 PWs)   bands (ev):

   -28.5055 -11.7244 -10.4934 -10.0222  -8.6274  -8.0303   2.9406   3.7392
     5.9319   6.5357   7.1023   7.9384

          k =-0.0851 0.3438-0.2264 (  4017 PWs)   bands (ev):

   -28.4993 -11.6735 -10.6091 -10.0152  -8.5442  -8.0839   2.7555   3.2180
     6.2832   6.7280   7.3821   7.6660

          k =-0.0851 0.3438-0.3773 (  4019 PWs)   bands (ev):

   -28.4931 -11.5214 -10.8463  -9.9993  -8.7714  -7.7667   2.4670   2.7422
     6.3665   6.7788   7.7465   7.8332

          k =-0.0851 0.5402-0.0755 (  4023 PWs)   bands (ev):

   -28.4590 -11.9946 -10.2512 -10.1201  -8.7773  -7.9433   3.0584   3.3414
     5.5065   6.5281   7.4169   8.0092

          k =-0.0851 0.5402-0.2264 (  4030 PWs)   bands (ev):

   -28.4538 -11.8454 -10.2432 -10.1982  -9.0521  -7.8263   2.7485   2.9971
     5.9944   6.5211   7.5280   8.0233

          k =-0.0851 0.5402-0.3773 (  4014 PWs)   bands (ev):

   -28.4486 -11.6355 -10.3657 -10.1951  -9.3769  -7.6448   2.2487   2.8966
     5.9975   7.0571   7.4732   8.1063

          k =-0.0851-0.4420-0.0755 (  4020 PWs)   bands (ev):

   -28.4761 -11.8510 -10.4467 -10.0727  -8.8310  -7.7792   2.9744   3.2777
     5.7761   6.3836   7.4386   8.1719

          k =-0.0851-0.4420-0.2264 (  4017 PWs)   bands (ev):

   -28.4705 -11.6282 -10.7040 -10.0675  -9.0461  -7.5474   2.4992   2.9383
     5.9619   6.5484   7.8031   8.2456

          k =-0.0851-0.4420-0.3773 (  4025 PWs)   bands (ev):

   -28.4650 -11.4160 -10.8868 -10.0636  -9.1641  -7.5258   2.2079   2.7717
     5.9868   6.9232   7.8644   8.1397

          k =-0.0851-0.2456-0.0755 (  4004 PWs)   bands (ev):

   -28.5391 -11.4144 -10.7153  -9.9480  -9.0194  -7.5902   2.6189   3.9476
     6.0379   6.4259   7.2948   8.2607

          k =-0.0851-0.2456-0.2264 (  4011 PWs)   bands (ev):

   -28.5322 -11.4877 -10.7812  -9.9381  -8.8657  -7.5892   2.3819   3.4258
     6.0502   6.8193   7.4805   8.2043

          k =-0.0851-0.2456-0.3773 (  4026 PWs)   bands (ev):

   -28.5253 -11.6311 -10.7307  -9.9285  -8.6808  -7.6886   2.2875   2.9634
     6.2788   6.8929   7.6803   7.9784

          k =-0.0851-0.0491-0.0755 (  3999 PWs)   bands (ev):

   -28.5845 -11.1713 -10.5426  -9.8576  -9.6108  -7.2404   2.3085   4.3991
     6.0155   6.0987   8.1829   8.1850

          k =-0.0851-0.0491-0.2264 (  3989 PWs)   bands (ev):

   -28.5766 -11.6883 -10.1450  -9.8511  -9.2482  -7.4951   2.2930   3.9490
     6.1858   6.4633   7.6822   8.0900

          k =-0.0851-0.0491-0.3773 (  4014 PWs)   bands (ev):

   -28.5688 -11.9800 -10.0352  -9.8441  -8.6094  -7.9627   2.3445   3.4546
     6.5932   6.9602   7.1195   7.6813

          k =-0.2552 0.6385-0.0755 (  4038 PWs)   bands (ev):

   -28.4467 -11.6701 -11.0304 -10.0936  -8.2938  -7.9889   3.0454   3.1218
     5.1196   6.8527   7.1209   8.5114

          k =-0.2552 0.6385-0.2264 (  4027 PWs)   bands (ev):

   -28.4417 -11.5196 -10.9799 -10.1664  -8.5525  -7.9977   2.8028   2.9078
     5.5388   6.9390   7.3493   8.1767

          k =-0.2552 0.6385-0.3773 (  4014 PWs)   bands (ev):

   -28.4367 -11.3490 -10.9271 -10.2369  -8.7753  -8.0702   2.5798   2.7654
     6.0366   7.0568   7.5392   7.6625

          k =-0.2552-0.3438-0.0755 (  4027 PWs)   bands (ev):

   -28.4807 -11.7709 -10.5827 -10.1157  -8.3790  -8.1383   3.0280   3.4613
     5.5960   6.7242   7.0119   8.1770

          k =-0.2552-0.3438-0.2264 (  4018 PWs)   bands (ev):

   -28.4750 -11.6462 -10.6713 -10.1439  -8.5933  -7.9879   2.8108   2.9952
     5.9895   6.7991   7.3579   7.9490

          k =-0.2552-0.3438-0.3773 (  4017 PWs)   bands (ev):

   -28.4693 -11.4120 -10.9075 -10.1361  -8.8350  -7.7861   2.5189   2.6538
     6.2565   6.7973   7.6768   7.9289

          k =-0.2552-0.1473-0.0755 (  4006 PWs)   bands (ev):

   -28.5268 -11.6100 -10.5343  -9.9455  -8.8516  -7.8521   2.8088   3.9435
     6.1406   6.3686   7.2812   7.8431

          k =-0.2552-0.1473-0.2264 (  4006 PWs)   bands (ev):

   -28.5202 -11.6540 -10.5986  -9.9369  -8.5908  -8.0270   2.6526   3.4233
     6.4130   6.6963   7.3751   7.6071

          k =-0.2552-0.1473-0.3773 (  4026 PWs)   bands (ev):

   -28.5135 -11.6264 -10.7425  -9.9274  -8.6527  -7.8200   2.4312   2.8711
     6.4704   6.7808   7.5864   7.8657

          k =-0.4253-0.2456-0.0755 (  4008 PWs)   bands (ev):

   -28.4681 -12.0044 -10.1879 -10.0308  -8.8223  -8.0262   3.0945   3.4517
     5.6532   6.4654   7.5113   7.7371

          k =-0.4253-0.2456-0.2264 (  4026 PWs)   bands (ev):

   -28.4628 -11.8726 -10.2842 -10.0198  -9.0470  -7.9141   2.8530   3.0097
     6.3018   6.3417   7.5078   7.8287

          k =-0.4253-0.2456-0.3773 (  4023 PWs)   bands (ev):

   -28.4574 -11.6500 -10.4791 -10.0084  -9.3915  -7.6229   2.2598   2.8780
     6.0292   7.0972   7.4686   8.0879

!    total energy              =    -139.91502499 Ry
     Harris-Foulkes estimate   =    -139.91502499 Ry
     estimated scf accuracy    <          1.1E-09 Ry

     The total energy is the sum of the following terms:

     one-electron contribution =     -29.13867905 Ry
     hartree contribution      =      28.57202761 Ry
     xc contribution           =     -26.45895979 Ry
     ewald contribution        =    -112.88941377 Ry

     convergence has been achieved in  12 iterations

     Forces acting on atoms (Ry/au):

     atom    1 type  3   force =    -0.00000000    0.00000000    0.00000000
     atom    2 type  2   force =    -0.00000000    0.00000000   -0.00051980
     atom    3 type  2   force =     0.00000000   -0.00000000    0.00051980
     atom    4 type  1   force =     0.00000000   -0.00000000    0.00018091
     atom    5 type  1   force =    -0.00000000    0.00000000   -0.00018091

     Total force =     0.000778     Total SCF correction =     0.000099
     SCF correction compared to forces is large: reduce conv_thr to get better values


     entering subroutine stress ...

          total   stress  (Ry/bohr**3)                   (kbar)     P=  597.19
   0.00405793  -0.00000000  -0.00000000        596.94     -0.00     -0.00
  -0.00000000   0.00405793   0.00000000         -0.00    596.94      0.00
  -0.00000000   0.00000000   0.00406303         -0.00      0.00    597.69


     Writing output data file CaOH2_ambient.save

     init_run     :     51.53s CPU     51.85s WALL (       2 calls)
     electrons    :   3276.02s CPU   3332.27s WALL (      20 calls)
     update_pot   :    822.10s CPU    827.78s WALL (      18 calls)
     forces       :    299.26s CPU    300.38s WALL (      20 calls)
     stress       :    667.93s CPU    670.00s WALL (      20 calls)

     Called by init_run:
     wfcinit      :     13.70s CPU     13.82s WALL (       2 calls)
     potinit      :     16.02s CPU     16.10s WALL (       2 calls)

     Called by electrons:
     c_bands      :   2754.89s CPU   2799.64s WALL (     189 calls)
     sum_band     :    472.88s CPU    482.62s WALL (     189 calls)
     v_of_rho     :     23.71s CPU     24.32s WALL (     204 calls)
     mix_rho      :     25.69s CPU     26.54s WALL (     189 calls)

     Called by c_bands:
     init_us_2    :     84.66s CPU     90.97s WALL (   26460 calls)
     cegterg      :   2708.91s CPU   2724.99s WALL (   11907 calls)

     Called by *egterg:
     h_psi        :   2097.75s CPU   2108.26s WALL (   37526 calls)
     g_psi        :     17.61s CPU     17.78s WALL (   25493 calls)
     cdiaghg      :     18.09s CPU     18.24s WALL (   35951 calls)

     Called by h_psi:
     add_vuspsi   :     50.94s CPU     51.31s WALL (   37526 calls)

     General routines
     calbec       :     57.82s CPU     58.22s WALL (   40046 calls)
     fft          :      6.86s CPU      6.98s WALL (    2412 calls)
     ffts         :     11.41s CPU     11.45s WALL (    3898 calls)
     fftw         :   1949.35s CPU   1957.19s WALL (  917104 calls)
     davcio       :      9.11s CPU     37.18s WALL (   38367 calls)


     PWSCF        :     1h25m CPU        1h26m WALL


   This run was terminated on:  10:36:21  19Apr2014            

=------------------------------------------------------------------------------=
   JOB DONE.
=------------------------------------------------------------------------------=
