
     Program PWSCF v.5.0.2 (svn rev. 9392) starts on 19Apr2014 at 23: 9:21 

     This program is part of the open-source Quantum ESPRESSO suite
     for quantum simulation of materials; please cite
         "P. Giannozzi et al., J. Phys.:Condens. Matter 21 395502 (2009);
          URL http://www.quantum-espresso.org", 
     in publications or presentations arising from this work. More details at
     http://www.quantum-espresso.org/quote.php

     Serial version

     Current dimensions of program PWSCF are:
     Max number of different atomic species (ntypx) = 10
     Max number of k-points (npk) =  40000
     Max angular momentum in pseudopotentials (lmaxx) =  3
     Waiting for input...
     Reading input from standard input

     G-vector sticks info
     --------------------
     sticks:   dense  smooth     PW     G-vecs:    dense   smooth      PW
     Sum         913     913    337                26035    26035    5883



     bravais-lattice index     =            4
     lattice parameter (alat)  =       6.3764  a.u.
     unit-cell volume          =     269.4254 (a.u.)^3
     number of atoms/cell      =            5
     number of atomic types    =            3
     number of electrons       =        24.00
     number of Kohn-Sham states=           12
     kinetic-energy cutoff     =     100.0000  Ry
     charge density cutoff     =     320.0000  Ry
     convergence threshold     =      1.0E-06
     mixing beta               =       0.3000
     number of iterations used =           16  local-TF  mixing
     Exchange-correlation      = PBE ( 1 4 3 4 0)
     EXX-fraction              =        0.00
     nstep                     =           50


     celldm(1)=   6.376400  celldm(2)=   0.000000  celldm(3)=   1.200000
     celldm(4)=   0.000000  celldm(5)=   0.000000  celldm(6)=   0.000000

     crystal axes: (cart. coord. in units of alat)
               a(1) = (   1.000000   0.000000   0.000000 )  
               a(2) = (  -0.500000   0.866025   0.000000 )  
               a(3) = (   0.000000   0.000000   1.200000 )  

     reciprocal axes: (cart. coord. in units 2 pi/alat)
               b(1) = (  1.000000  0.577350 -0.000000 )  
               b(2) = (  0.000000  1.154701  0.000000 )  
               b(3) = (  0.000000 -0.000000  0.833333 )  


     PseudoPot. # 1 for H  read from file:
     /home/ilia/espresso/pseudo/H.pbe-sp-mt.ncpp
     MD5 check sum: 7a641936b52ccecd26bd1ad87cca5aed
     Pseudo is Norm-conserving, Zval =  1.0
     Generated by old ld1 code (numerical format)
     Using radial grid of 1076 points,  0 beta functions with: 

     PseudoPot. # 2 for O  read from file:
     /home/ilia/espresso/pseudo/O.pbe-sp-mt.ncpp
     MD5 check sum: 8a3d23d410d2f3ebfd0a39faacc72cbb
     Pseudo is Norm-conserving, Zval =  6.0
     Generated by old ld1 code (numerical format)
     Using radial grid of 1130 points,  1 beta functions with: 
                l(1) =   1

     PseudoPot. # 3 for Ca read from file:
     /home/ilia/espresso/pseudo/Ca.pbe-sp-mt_ion2.ncpp
     MD5 check sum: 4bcd670d05521f7b178fdf0a334578ab
     Pseudo is Norm-conserving, Zval = 10.0
     Generated by old ld1 code (numerical format)
     Using radial grid of 1153 points,  1 beta functions with: 
                l(1) =   1

     atomic species   valence    mass     pseudopotential
        H              1.00     1.00700     H ( 1.00)
        O              6.00    16.00000     O ( 1.00)
        Ca            10.00    40.07800     Ca( 1.00)

      6 Sym. Ops. (no inversion) found



   Cartesian axes

     site n.     atom                  positions (alat units)
         1           Ca  tau(   1) = (   0.0000000   0.0000000   0.0000000  )
         2           O   tau(   2) = (   0.0000000   0.5773503   0.3444000  )
         3           O   tau(   3) = (   0.5000000   0.2886751   0.8544000  )
         4           H   tau(   4) = (   0.0000000   0.5773503   0.8088000  )
         5           H   tau(   5) = (   0.5000000   0.2886751   0.3900000  )

     number of k points=    63
                       cart. coord. in units 2pi/alat
        k(    1) = (   0.0833333   0.1443376   0.0694444), wk =   0.0370370
        k(    2) = (   0.0833333   0.1443376   0.2083333), wk =   0.0370370
        k(    3) = (   0.0833333   0.1443376   0.3472222), wk =   0.0370370
        k(    4) = (   0.0833333   0.3367877   0.0694444), wk =   0.0370370
        k(    5) = (   0.0833333   0.3367877   0.2083333), wk =   0.0370370
        k(    6) = (   0.0833333   0.3367877   0.3472222), wk =   0.0370370
        k(    7) = (   0.0833333   0.5292377   0.0694444), wk =   0.0370370
        k(    8) = (   0.0833333   0.5292377   0.2083333), wk =   0.0370370
        k(    9) = (   0.0833333   0.5292377   0.3472222), wk =   0.0370370
        k(   10) = (   0.0833333  -0.4330127   0.0694444), wk =   0.0370370
        k(   11) = (   0.0833333  -0.4330127   0.2083333), wk =   0.0370370
        k(   12) = (   0.0833333  -0.4330127   0.3472222), wk =   0.0370370
        k(   13) = (   0.0833333  -0.2405626   0.0694444), wk =   0.0370370
        k(   14) = (   0.0833333  -0.2405626   0.2083333), wk =   0.0370370
        k(   15) = (   0.0833333  -0.2405626   0.3472222), wk =   0.0370370
        k(   16) = (   0.0833333  -0.0481125   0.0694444), wk =   0.0185185
        k(   17) = (   0.0833333  -0.0481125   0.2083333), wk =   0.0185185
        k(   18) = (   0.0833333  -0.0481125   0.3472222), wk =   0.0185185
        k(   19) = (   0.2500000   0.4330127   0.0694444), wk =   0.0370370
        k(   20) = (   0.2500000   0.4330127   0.2083333), wk =   0.0370370
        k(   21) = (   0.2500000   0.4330127   0.3472222), wk =   0.0370370
        k(   22) = (   0.2500000   0.6254628   0.0694444), wk =   0.0370370
        k(   23) = (   0.2500000   0.6254628   0.2083333), wk =   0.0370370
        k(   24) = (   0.2500000   0.6254628   0.3472222), wk =   0.0370370
        k(   25) = (   0.2500000  -0.3367877   0.0694444), wk =   0.0370370
        k(   26) = (   0.2500000  -0.3367877   0.2083333), wk =   0.0370370
        k(   27) = (   0.2500000  -0.3367877   0.3472222), wk =   0.0370370
        k(   28) = (   0.2500000  -0.1443376   0.0694444), wk =   0.0185185
        k(   29) = (   0.2500000  -0.1443376   0.2083333), wk =   0.0185185
        k(   30) = (   0.2500000  -0.1443376   0.3472222), wk =   0.0185185
        k(   31) = (   0.4166667   0.7216878   0.0694444), wk =   0.0370370
        k(   32) = (   0.4166667   0.7216878   0.2083333), wk =   0.0370370
        k(   33) = (   0.4166667   0.7216878   0.3472222), wk =   0.0370370
        k(   34) = (   0.4166667  -0.2405626   0.0694444), wk =   0.0185185
        k(   35) = (   0.4166667  -0.2405626   0.2083333), wk =   0.0185185
        k(   36) = (   0.4166667  -0.2405626   0.3472222), wk =   0.0185185
        k(   37) = (  -0.0833333  -0.3367877   0.0694444), wk =   0.0370370
        k(   38) = (  -0.0833333  -0.3367877   0.2083333), wk =   0.0370370
        k(   39) = (  -0.0833333  -0.3367877   0.3472222), wk =   0.0370370
        k(   40) = (  -0.0833333  -0.5292377   0.0694444), wk =   0.0370370
        k(   41) = (  -0.0833333  -0.5292377   0.2083333), wk =   0.0370370
        k(   42) = (  -0.0833333  -0.5292377   0.3472222), wk =   0.0370370
        k(   43) = (  -0.0833333   0.4330127   0.0694444), wk =   0.0370370
        k(   44) = (  -0.0833333   0.4330127   0.2083333), wk =   0.0370370
        k(   45) = (  -0.0833333   0.4330127   0.3472222), wk =   0.0370370
        k(   46) = (  -0.0833333   0.2405626   0.0694444), wk =   0.0370370
        k(   47) = (  -0.0833333   0.2405626   0.2083333), wk =   0.0370370
        k(   48) = (  -0.0833333   0.2405626   0.3472222), wk =   0.0370370
        k(   49) = (  -0.0833333   0.0481125   0.0694444), wk =   0.0185185
        k(   50) = (  -0.0833333   0.0481125   0.2083333), wk =   0.0185185
        k(   51) = (  -0.0833333   0.0481125   0.3472222), wk =   0.0185185
        k(   52) = (  -0.2500000  -0.6254628   0.0694444), wk =   0.0370370
        k(   53) = (  -0.2500000  -0.6254628   0.2083333), wk =   0.0370370
        k(   54) = (  -0.2500000  -0.6254628   0.3472222), wk =   0.0370370
        k(   55) = (  -0.2500000   0.3367877   0.0694444), wk =   0.0370370
        k(   56) = (  -0.2500000   0.3367877   0.2083333), wk =   0.0370370
        k(   57) = (  -0.2500000   0.3367877   0.3472222), wk =   0.0370370
        k(   58) = (  -0.2500000   0.1443376   0.0694444), wk =   0.0185185
        k(   59) = (  -0.2500000   0.1443376   0.2083333), wk =   0.0185185
        k(   60) = (  -0.2500000   0.1443376   0.3472222), wk =   0.0185185
        k(   61) = (  -0.4166667   0.2405626   0.0694444), wk =   0.0185185
        k(   62) = (  -0.4166667   0.2405626   0.2083333), wk =   0.0185185
        k(   63) = (  -0.4166667   0.2405626   0.3472222), wk =   0.0185185

     Dense  grid:    26035 G-vectors     FFT dimensions: (  40,  40,  45)

     Largest allocated arrays     est. size (Mb)     dimensions
        Kohn-Sham Wavefunctions         0.84 Mb     (   4568,   12)
        NL pseudopotentials             0.63 Mb     (   4568,    9)
        Each V/rho on FFT grid          1.10 Mb     (  72000)
        Each G-vector array             0.20 Mb     (  26035)
        G-vector shells                 0.20 Mb     (  26035)
     Largest temporary arrays     est. size (Mb)     dimensions
        Auxiliary wavefunctions         3.35 Mb     (   4568,   48)
        Each subspace H/S matrix        0.04 Mb     (  48,  48)
        Each <psi_i|beta_j> matrix      0.00 Mb     (      9,   12)
        Arrays for rho mixing          17.58 Mb     (  72000,  16)

     Initial potential from superposition of free atoms

     starting charge   21.99998, renormalised to   24.00000
     Starting wfc are   14 randomized atomic wfcs

     total cpu time spent up to now is       41.1 secs

     per-process dynamical memory:    16.1 Mb

     Self-consistent Calculation

     iteration #  1     ecut=   100.00 Ry     beta=0.30
     Davidson diagonalization with overlap
     ethr =  1.00E-02,  avg # of iterations =  2.0

     total cpu time spent up to now is       58.8 secs

     total energy              =    -139.77634174 Ry
     Harris-Foulkes estimate   =    -139.85804412 Ry
     estimated scf accuracy    <       0.41024085 Ry

     iteration #  2     ecut=   100.00 Ry     beta=0.30
     Davidson diagonalization with overlap
     ethr =  1.71E-03,  avg # of iterations =  1.0

     total cpu time spent up to now is       71.9 secs

     total energy              =    -139.63487091 Ry
     Harris-Foulkes estimate   =    -139.78381823 Ry
     estimated scf accuracy    <       0.24598472 Ry

     iteration #  3     ecut=   100.00 Ry     beta=0.30
     Davidson diagonalization with overlap
     ethr =  1.02E-03,  avg # of iterations =  2.0

     total cpu time spent up to now is       87.3 secs

     total energy              =    -139.66005940 Ry
     Harris-Foulkes estimate   =    -139.67208858 Ry
     estimated scf accuracy    <       0.02531608 Ry

     iteration #  4     ecut=   100.00 Ry     beta=0.30
     Davidson diagonalization with overlap
     ethr =  1.05E-04,  avg # of iterations =  2.6

     total cpu time spent up to now is      104.5 secs

     total energy              =    -139.66468097 Ry
     Harris-Foulkes estimate   =    -139.66513041 Ry
     estimated scf accuracy    <       0.00279394 Ry

     iteration #  5     ecut=   100.00 Ry     beta=0.30
     Davidson diagonalization with overlap
     ethr =  1.16E-05,  avg # of iterations =  1.4

     total cpu time spent up to now is      117.6 secs

     total energy              =    -139.66423540 Ry
     Harris-Foulkes estimate   =    -139.66480842 Ry
     estimated scf accuracy    <       0.00166243 Ry

     iteration #  6     ecut=   100.00 Ry     beta=0.30
     Davidson diagonalization with overlap
     ethr =  6.93E-06,  avg # of iterations =  2.3

     total cpu time spent up to now is      133.3 secs

     total energy              =    -139.66440168 Ry
     Harris-Foulkes estimate   =    -139.66443825 Ry
     estimated scf accuracy    <       0.00010275 Ry

     iteration #  7     ecut=   100.00 Ry     beta=0.30
     Davidson diagonalization with overlap
     ethr =  4.28E-07,  avg # of iterations =  3.0

     total cpu time spent up to now is      150.9 secs

     total energy              =    -139.66443076 Ry
     Harris-Foulkes estimate   =    -139.66442904 Ry
     estimated scf accuracy    <       0.00001136 Ry

     iteration #  8     ecut=   100.00 Ry     beta=0.30
     Davidson diagonalization with overlap
     ethr =  4.74E-08,  avg # of iterations =  3.0

     total cpu time spent up to now is      169.1 secs

     total energy              =    -139.66443154 Ry
     Harris-Foulkes estimate   =    -139.66443566 Ry
     estimated scf accuracy    <       0.00001227 Ry

     iteration #  9     ecut=   100.00 Ry     beta=0.30
     Davidson diagonalization with overlap
     ethr =  4.74E-08,  avg # of iterations =  2.2

     total cpu time spent up to now is      184.8 secs

     End of self-consistent calculation

          k = 0.0833 0.1443 0.0694 (  4531 PWs)   bands (ev):

   -30.6285 -12.5270 -12.2661 -11.9733  -9.7029  -7.7872   3.1512   4.3234
     5.1207   5.6082   6.3512   6.7386

          k = 0.0833 0.1443 0.2083 (  4541 PWs)   bands (ev):

   -30.6263 -12.6738 -12.2191 -11.9706  -9.4047  -7.9853   2.8059   3.8746
     5.2115   5.7011   6.3846   6.7923

          k = 0.0833 0.1443 0.3472 (  4548 PWs)   bands (ev):

   -30.6241 -12.7900 -12.1934 -11.9678  -8.9788  -8.3217   2.7602   3.1581
     5.5089   5.9285   6.2047   6.6346

          k = 0.0833 0.3368 0.0694 (  4545 PWs)   bands (ev):

   -30.5845 -12.8141 -12.3257 -12.0637  -9.0859  -8.0574   2.9674   3.0700
     5.0117   5.7206   6.2936   6.7136

          k = 0.0833 0.3368 0.2083 (  4549 PWs)   bands (ev):

   -30.5827 -12.7496 -12.4129 -12.0598  -9.1353  -7.9584   2.2770   2.7477
     5.0082   6.2525   6.6569   6.7307

          k = 0.0833 0.3368 0.3472 (  4546 PWs)   bands (ev):

   -30.5808 -12.7007 -12.4842 -12.0565  -9.0814  -7.9923   2.0170   2.3833
     5.1104   6.3459   6.6439   6.9178

          k = 0.0833 0.5292 0.0694 (  4557 PWs)   bands (ev):

   -30.5520 -13.1266 -12.1654 -12.1208  -8.8172  -8.1666   2.2092   2.9822
     5.0207   5.9845   6.1338   6.5307

          k = 0.0833 0.5292 0.2083 (  4553 PWs)   bands (ev):

   -30.5504 -13.0690 -12.1865 -12.1311  -9.0356  -7.9765   1.8888   2.4821
     4.9698   6.2179   6.5143   6.7844

          k = 0.0833 0.5292 0.3472 (  4556 PWs)   bands (ev):

   -30.5489 -13.0148 -12.2108 -12.1328  -9.1642  -7.8910   1.6048   2.1898
     4.9347   6.4721   6.6697   6.8760

          k = 0.0833-0.4330 0.0694 (  4549 PWs)   bands (ev):

   -30.5639 -13.0309 -12.2086 -12.1071  -8.6369  -8.4247   2.5414   3.2563
     4.9818   5.6205   6.2835   6.4076

          k = 0.0833-0.4330 0.2083 (  4548 PWs)   bands (ev):

   -30.5623 -12.9869 -12.2452 -12.1070  -8.7612  -8.3209   2.2507   2.7083
     5.1713   5.8748   6.3989   6.5909

          k = 0.0833-0.4330 0.3472 (  4557 PWs)   bands (ev):

   -30.5606 -12.9224 -12.3022 -12.1019  -9.0289  -8.0456   1.8912   2.2337
     5.1035   6.2490   6.6953   6.7544

          k = 0.0833-0.2406 0.0694 (  4535 PWs)   bands (ev):

   -30.6081 -12.5866 -12.3981 -12.0157  -9.3347  -7.9830   3.1401   3.8806
     5.0614   5.4655   6.2909   6.5965

          k = 0.0833-0.2406 0.2083 (  4532 PWs)   bands (ev):

   -30.6061 -12.6390 -12.4056 -12.0126  -9.1294  -8.1232   2.6682   3.3935
     5.2840   5.8281   6.2313   6.7210

          k = 0.0833-0.2406 0.3472 (  4555 PWs)   bands (ev):

   -30.6041 -12.6797 -12.4197 -12.0090  -8.9335  -8.2470   2.4802   2.7143
     5.5276   5.8340   6.4060   6.8524

          k = 0.0833-0.0481 0.0694 (  4547 PWs)   bands (ev):

   -30.6402 -12.5714 -12.0701 -11.9505  -9.9432  -7.6838   3.1216   4.7377
     5.0798   5.6109   6.5275   6.8535

          k = 0.0833-0.0481 0.2083 (  4538 PWs)   bands (ev):

   -30.6379 -12.7285 -12.0473 -11.9481  -9.5743  -7.9284   2.9272   4.2624
     5.1894   5.5405   6.5085   6.7041

          k = 0.0833-0.0481 0.3472 (  4540 PWs)   bands (ev):

   -30.6356 -12.8610 -12.0325 -11.9458  -9.0254  -8.3728   3.0007   3.4788
     5.4784   5.9826   6.1091   6.3326

          k = 0.2500 0.4330 0.0694 (  4559 PWs)   bands (ev):

   -30.5520 -12.9426 -12.4169 -12.1253  -8.5756  -8.3321   2.6762   2.7091
     4.3952   5.9319   6.2653   6.7553

          k = 0.2500 0.4330 0.2083 (  4556 PWs)   bands (ev):

   -30.5505 -12.8921 -12.4112 -12.1555  -8.7519  -8.2095   2.2678   2.3438
     4.6764   6.2321   6.4839   6.6715

          k = 0.2500 0.4330 0.3472 (  4549 PWs)   bands (ev):

   -30.5489 -12.8372 -12.4115 -12.1823  -8.8759  -8.1413   1.9826   2.0194
     4.9722   6.1159   6.6174   6.8650

          k = 0.2500 0.6255 0.0694 (  4559 PWs)   bands (ev):

   -30.5433 -12.9260 -12.5315 -12.1008  -8.4655  -8.3704   2.5023   2.6761
     4.2099   6.0834   6.2207   6.7897

          k = 0.2500 0.6255 0.2083 (  4568 PWs)   bands (ev):

   -30.5418 -12.8824 -12.5086 -12.1298  -8.6249  -8.2987   2.1943   2.3175
     4.5023   6.2778   6.5049   6.6412

          k = 0.2500 0.6255 0.3472 (  4556 PWs)   bands (ev):

   -30.5403 -12.8349 -12.4876 -12.1584  -8.7555  -8.2557   1.9154   2.0406
     4.8909   6.0530   6.6750   6.7646

          k = 0.2500-0.3368 0.0694 (  4544 PWs)   bands (ev):

   -30.5671 -12.9110 -12.3114 -12.1329  -8.8270  -8.1943   2.8016   2.8926
     4.7120   5.7939   6.2653   6.7387

          k = 0.2500-0.3368 0.2083 (  4551 PWs)   bands (ev):

   -30.5655 -12.8520 -12.3563 -12.1413  -8.9573  -8.0637   2.2465   2.5215
     4.8883   6.2809   6.4834   6.7063

          k = 0.2500-0.3368 0.3472 (  4549 PWs)   bands (ev):

   -30.5638 -12.7948 -12.4037 -12.1447  -9.0079  -8.0273   1.9477   2.1845
     5.0597   6.2236   6.6261   6.9368

          k = 0.2500-0.1443 0.0694 (  4543 PWs)   bands (ev):

   -30.5995 -12.6726 -12.3848 -12.0152  -9.2848  -7.9596   3.0596   3.3553
     5.1049   5.6686   6.3742   6.7165

          k = 0.2500-0.1443 0.2083 (  4539 PWs)   bands (ev):

   -30.5975 -12.6088 -12.4934 -12.0119  -9.2342  -7.9345   2.3994   3.0025
     5.0418   6.1539   6.7361   6.7750

          k = 0.2500-0.1443 0.3472 (  4560 PWs)   bands (ev):

   -30.5956 -12.6183 -12.5278 -12.0089  -9.0767  -8.0487   2.1983   2.5767
     5.1518   6.4473   6.5815   6.7761

          k = 0.4167 0.7217 0.0694 (  4568 PWs)   bands (ev):

   -30.5465 -13.0549 -12.3326 -12.1102  -8.6394  -8.2619   2.3211   2.8441
     4.5701   6.0571   6.1527   6.6737

          k = 0.4167 0.7217 0.2083 (  4565 PWs)   bands (ev):

   -30.5450 -13.0046 -12.3189 -12.1408  -8.8283  -8.1377   2.0346   2.4172
     4.7438   6.1729   6.4833   6.7442

          k = 0.4167 0.7217 0.3472 (  4544 PWs)   bands (ev):

   -30.5434 -12.9526 -12.3043 -12.1715  -8.9752  -8.0574   1.7469   2.1280
     4.9217   6.2117   6.7178   6.7745

          k = 0.4167-0.2406 0.0694 (  4549 PWs)   bands (ev):

   -30.5584 -13.1091 -12.1663 -12.0789  -8.9186  -8.1129   2.2543   3.0208
     5.2071   6.0154   6.1198   6.4646

          k = 0.4167-0.2406 0.2083 (  4544 PWs)   bands (ev):

   -30.5567 -13.0468 -12.2149 -12.0749  -9.1354  -7.8949   1.8637   2.5075
     5.0276   6.2857   6.6428   6.7602

          k = 0.4167-0.2406 0.3472 (  4565 PWs)   bands (ev):

   -30.5552 -12.9940 -12.2537 -12.0710  -9.2240  -7.8347   1.5920   2.2224
     4.9500   6.5717   6.6840   6.9253

          k =-0.0833-0.3368 0.0694 (  4545 PWs)   bands (ev):

   -30.5845 -12.8365 -12.3047 -12.0650  -8.9440  -8.2258   2.9206   3.5197
     4.9501   5.4923   6.2976   6.4730

          k =-0.0833-0.3368 0.2083 (  4549 PWs)   bands (ev):

   -30.5827 -12.8077 -12.3577 -12.0621  -8.8477  -8.3006   2.5118   2.9651
     5.2811   5.8341   6.2731   6.6052

          k =-0.0833-0.3368 0.3472 (  4546 PWs)   bands (ev):

   -30.5808 -12.7446 -12.4417 -12.0574  -8.9513  -8.1504   2.2486   2.3184
     5.3031   6.0453   6.5769   6.8439

          k =-0.0833-0.5292 0.0694 (  4557 PWs)   bands (ev):

   -30.5520 -13.1317 -12.1582 -12.1240  -8.7025  -8.2944   2.2501   3.0785
     5.0192   5.8114   6.2135   6.4488

          k =-0.0833-0.5292 0.2083 (  4553 PWs)   bands (ev):

   -30.5504 -13.0806 -12.1667 -12.1417  -8.9082  -8.1303   1.9913   2.5637
     5.0451   6.0218   6.4768   6.6864

          k =-0.0833-0.5292 0.3472 (  4556 PWs)   bands (ev):

   -30.5489 -13.0214 -12.2021 -12.1362  -9.1175  -7.9511   1.6613   2.2062
     4.9769   6.3693   6.7159   6.7841

          k =-0.0833 0.4330 0.0694 (  4549 PWs)   bands (ev):

   -30.5639 -13.0162 -12.2235 -12.1040  -8.9132  -8.1189   2.4720   2.9709
     5.0125   5.9212   6.1893   6.6273

          k =-0.0833 0.4330 0.2083 (  4548 PWs)   bands (ev):

   -30.5623 -12.9529 -12.2789 -12.1018  -9.0969  -7.9251   2.0012   2.5146
     4.9604   6.3418   6.5499   6.8084

          k =-0.0833 0.4330 0.3472 (  4557 PWs)   bands (ev):

   -30.5606 -12.9019 -12.3222 -12.0997  -9.1466  -7.8972   1.7313   2.2235
     4.9817   6.5388   6.5891   6.9444

          k =-0.0833 0.2406 0.0694 (  4535 PWs)   bands (ev):

   -30.6081 -12.5506 -12.4331 -12.0153  -9.3743  -7.9316   3.1084   3.6998
     5.0399   5.5820   6.3426   6.7536

          k =-0.0833 0.2406 0.2083 (  4532 PWs)   bands (ev):

   -30.6061 -12.5756 -12.4671 -12.0119  -9.2298  -7.9986   2.5660   3.2514
     5.0971   6.0163   6.5567   6.7606

          k =-0.0833 0.2406 0.3472 (  4555 PWs)   bands (ev):

   -30.6041 -12.6572 -12.4413 -12.0087  -9.0086  -8.1595   2.3941   2.7129
     5.2984   6.1202   6.5508   6.7765

          k =-0.0833 0.0481 0.0694 (  4547 PWs)   bands (ev):

   -30.6402 -12.5734 -12.0684 -11.9506  -9.9394  -7.6893   3.1331   4.7121
     5.1702   5.5932   6.5534   6.7187

          k =-0.0833 0.0481 0.2083 (  4538 PWs)   bands (ev):

   -30.6379 -12.7312 -12.0449 -11.9484  -9.5636  -7.9424   2.9430   4.3028
     5.2965   5.4480   6.3578   6.7549

          k =-0.0833 0.0481 0.3472 (  4540 PWs)   bands (ev):

   -30.6355 -12.8621 -12.0316 -11.9459  -9.0109  -8.3890   3.0049   3.4961
     5.6404   5.8316   5.9361   6.4686

          k =-0.2500-0.6255 0.0694 (  4559 PWs)   bands (ev):

   -30.5433 -12.9241 -12.5333 -12.1008  -8.5267  -8.3071   2.4945   2.6622
     4.2177   6.1071   6.1987   6.8102

          k =-0.2500-0.6255 0.2083 (  4568 PWs)   bands (ev):

   -30.5418 -12.8782 -12.5127 -12.1296  -8.6743  -8.2451   2.1720   2.3096
     4.4992   6.3452   6.4522   6.6712

          k =-0.2500-0.6255 0.3472 (  4556 PWs)   bands (ev):

   -30.5403 -12.8325 -12.4900 -12.1582  -8.7731  -8.2360   1.9032   2.0409
     4.8773   6.0923   6.6493   6.7806

          k =-0.2500 0.3368 0.0694 (  4544 PWs)   bands (ev):

   -30.5671 -12.9198 -12.3017 -12.1349  -8.7103  -8.3239   2.7625   3.0986
     4.6612   5.7106   6.2982   6.6212

          k =-0.2500 0.3368 0.2083 (  4551 PWs)   bands (ev):

   -30.5655 -12.8733 -12.3324 -12.1460  -8.7950  -8.2520   2.3745   2.5908
     4.9643   6.0394   6.5296   6.5463

          k =-0.2500 0.3368 0.3472 (  4549 PWs)   bands (ev):

   -30.5638 -12.8089 -12.3884 -12.1469  -8.9451  -8.1034   2.0746   2.1324
     5.1462   6.0489   6.6677   6.8744

          k =-0.2500 0.1443 0.0694 (  4543 PWs)   bands (ev):

   -30.5995 -12.7104 -12.3499 -12.0155  -9.1773  -8.0947   3.0815   3.7955
     5.2048   5.3159   6.2868   6.4267

          k =-0.2500 0.1443 0.2083 (  4539 PWs)   bands (ev):

   -30.5975 -12.7176 -12.3897 -12.0125  -8.9752  -8.2503   2.6376   3.2938
     5.5544   5.5972   6.1062   6.6635

          k =-0.2500 0.1443 0.3472 (  4560 PWs)   bands (ev):

   -30.5956 -12.6917 -12.4568 -12.0091  -8.9226  -8.2321   2.4222   2.5437
     5.4073   6.1513   6.2486   6.8681

          k =-0.4167 0.2406 0.0694 (  4549 PWs)   bands (ev):

   -30.5584 -13.1202 -12.1580 -12.0791  -8.6848  -8.3743   2.3337   3.2525
     5.3290   5.5052   6.2720   6.3077

          k =-0.4167 0.2406 0.2083 (  4544 PWs)   bands (ev):

   -30.5567 -13.0720 -12.1952 -12.0752  -8.8686  -8.2177   2.0816   2.6914
     5.2172   5.9365   6.3833   6.6182

          k =-0.4167 0.2406 0.3472 (  4565 PWs)   bands (ev):

   -30.5552 -13.0086 -12.2418 -12.0712  -9.1282  -7.9590   1.7187   2.2522
     5.0280   6.5605   6.5711   6.7378

!    total energy              =    -139.66443263 Ry
     Harris-Foulkes estimate   =    -139.66443299 Ry
     estimated scf accuracy    <       0.00000055 Ry

     The total energy is the sum of the following terms:

     one-electron contribution =     -31.97812452 Ry
     hartree contribution      =      28.59564857 Ry
     xc contribution           =     -25.69828264 Ry
     ewald contribution        =    -110.58367403 Ry

     convergence has been achieved in   9 iterations

     Forces acting on atoms (Ry/au):

     atom    1 type  3   force =     0.00000000    0.00000000   -0.00064417
     atom    2 type  2   force =     0.00000000   -0.00000000    0.04775560
     atom    3 type  2   force =     0.00000000    0.00000000   -0.04751270
     atom    4 type  1   force =     0.00000000    0.00000000   -0.14509409
     atom    5 type  1   force =     0.00000000   -0.00000000    0.14549537

     Total force =     0.216240     Total SCF correction =     0.001227


     entering subroutine stress ...

          total   stress  (Ry/bohr**3)                   (kbar)     P=  146.36
   0.00154714   0.00000000   0.00000000        227.59      0.00      0.00
   0.00000000   0.00154714  -0.00000000          0.00    227.59     -0.00
   0.00000000  -0.00000000  -0.00010946          0.00     -0.00    -16.10


     BFGS Geometry Optimization

     number of scf cycles    =   1
     number of bfgs steps    =   0

     enthalpy new            =    -139.2981292345 Ry

     new trust radius        =       0.1454953651 bohr
     new conv_thr            =       0.0000010000 Ry

     new unit-cell volume =    261.97015 a.u.^3 (    38.81997 Ang^3 )

CELL_PARAMETERS (alat=  6.37640000)
   1.004689105   0.000000000  -0.000000000
  -0.502344553   0.870086288  -0.000000000
   0.000000000  -0.000000000   1.155928932

ATOMIC_POSITIONS (crystal)
Ca       0.000000000   0.000000000  -0.000084187
O        0.333333333   0.666666667   0.293241191
O        0.666666667   0.333333333   0.705790554
H        0.333333333   0.666666667   0.655037617
H        0.666666667   0.333333333   0.344014826



     Writing output data file CaOH2_ambient.save
     NEW-OLD atomic charge density approx. for the potential
     NEW k-points:
        k(    1) = (   0.0829444   0.1436639   0.0720921), wk =   0.0370370
        k(    2) = (   0.0829444   0.1436639   0.2162763), wk =   0.0370370
        k(    3) = (   0.0829444   0.1436639   0.3604605), wk =   0.0370370
        k(    4) = (   0.0829444   0.3352158   0.0720921), wk =   0.0370370
        k(    5) = (   0.0829444   0.3352158   0.2162763), wk =   0.0370370
        k(    6) = (   0.0829444   0.3352158   0.3604605), wk =   0.0370370
        k(    7) = (   0.0829444   0.5267677   0.0720921), wk =   0.0370370
        k(    8) = (   0.0829444   0.5267677   0.2162763), wk =   0.0370370
        k(    9) = (   0.0829444   0.5267677   0.3604605), wk =   0.0370370
        k(   10) = (   0.0829444  -0.4309917   0.0720921), wk =   0.0370370
        k(   11) = (   0.0829444  -0.4309917   0.2162763), wk =   0.0370370
        k(   12) = (   0.0829444  -0.4309917   0.3604605), wk =   0.0370370
        k(   13) = (   0.0829444  -0.2394399   0.0720921), wk =   0.0370370
        k(   14) = (   0.0829444  -0.2394399   0.2162763), wk =   0.0370370
        k(   15) = (   0.0829444  -0.2394399   0.3604605), wk =   0.0370370
        k(   16) = (   0.0829444  -0.0478880   0.0720921), wk =   0.0185185
        k(   17) = (   0.0829444  -0.0478880   0.2162763), wk =   0.0185185
        k(   18) = (   0.0829444  -0.0478880   0.3604605), wk =   0.0185185
        k(   19) = (   0.2488332   0.4309917   0.0720921), wk =   0.0370370
        k(   20) = (   0.2488332   0.4309917   0.2162763), wk =   0.0370370
        k(   21) = (   0.2488332   0.4309917   0.3604605), wk =   0.0370370
        k(   22) = (   0.2488332   0.6225436   0.0720921), wk =   0.0370370
        k(   23) = (   0.2488332   0.6225436   0.2162763), wk =   0.0370370
        k(   24) = (   0.2488332   0.6225436   0.3604605), wk =   0.0370370
        k(   25) = (   0.2488332  -0.3352158   0.0720921), wk =   0.0370370
        k(   26) = (   0.2488332  -0.3352158   0.2162763), wk =   0.0370370
        k(   27) = (   0.2488332  -0.3352158   0.3604605), wk =   0.0370370
        k(   28) = (   0.2488332  -0.1436639   0.0720921), wk =   0.0185185
        k(   29) = (   0.2488332  -0.1436639   0.2162763), wk =   0.0185185
        k(   30) = (   0.2488332  -0.1436639   0.3604605), wk =   0.0185185
        k(   31) = (   0.4147220   0.7183196   0.0720921), wk =   0.0370370
        k(   32) = (   0.4147220   0.7183196   0.2162763), wk =   0.0370370
        k(   33) = (   0.4147220   0.7183196   0.3604605), wk =   0.0370370
        k(   34) = (   0.4147220  -0.2394399   0.0720921), wk =   0.0185185
        k(   35) = (   0.4147220  -0.2394399   0.2162763), wk =   0.0185185
        k(   36) = (   0.4147220  -0.2394399   0.3604605), wk =   0.0185185
        k(   37) = (  -0.0829444  -0.3352158   0.0720921), wk =   0.0370370
        k(   38) = (  -0.0829444  -0.3352158   0.2162763), wk =   0.0370370
        k(   39) = (  -0.0829444  -0.3352158   0.3604605), wk =   0.0370370
        k(   40) = (  -0.0829444  -0.5267677   0.0720921), wk =   0.0370370
        k(   41) = (  -0.0829444  -0.5267677   0.2162763), wk =   0.0370370
        k(   42) = (  -0.0829444  -0.5267677   0.3604605), wk =   0.0370370
        k(   43) = (  -0.0829444   0.4309917   0.0720921), wk =   0.0370370
        k(   44) = (  -0.0829444   0.4309917   0.2162763), wk =   0.0370370
        k(   45) = (  -0.0829444   0.4309917   0.3604605), wk =   0.0370370
        k(   46) = (  -0.0829444   0.2394399   0.0720921), wk =   0.0370370
        k(   47) = (  -0.0829444   0.2394399   0.2162763), wk =   0.0370370
        k(   48) = (  -0.0829444   0.2394399   0.3604605), wk =   0.0370370
        k(   49) = (  -0.0829444   0.0478880   0.0720921), wk =   0.0185185
        k(   50) = (  -0.0829444   0.0478880   0.2162763), wk =   0.0185185
        k(   51) = (  -0.0829444   0.0478880   0.3604605), wk =   0.0185185
        k(   52) = (  -0.2488332  -0.6225436   0.0720921), wk =   0.0370370
        k(   53) = (  -0.2488332  -0.6225436   0.2162763), wk =   0.0370370
        k(   54) = (  -0.2488332  -0.6225436   0.3604605), wk =   0.0370370
        k(   55) = (  -0.2488332   0.3352158   0.0720921), wk =   0.0370370
        k(   56) = (  -0.2488332   0.3352158   0.2162763), wk =   0.0370370
        k(   57) = (  -0.2488332   0.3352158   0.3604605), wk =   0.0370370
        k(   58) = (  -0.2488332   0.1436639   0.0720921), wk =   0.0185185
        k(   59) = (  -0.2488332   0.1436639   0.2162763), wk =   0.0185185
        k(   60) = (  -0.2488332   0.1436639   0.3604605), wk =   0.0185185
        k(   61) = (  -0.4147220   0.2394399   0.0720921), wk =   0.0185185
        k(   62) = (  -0.4147220   0.2394399   0.2162763), wk =   0.0185185
        k(   63) = (  -0.4147220   0.2394399   0.3604605), wk =   0.0185185
     extrapolated charge   23.37392, renormalised to   24.00000

     total cpu time spent up to now is      281.3 secs

     per-process dynamical memory:    21.2 Mb

     Self-consistent Calculation

     iteration #  1     ecut=   100.00 Ry     beta=0.30
     Davidson diagonalization with overlap
     ethr =  1.00E-06,  avg # of iterations =  6.3

     total cpu time spent up to now is      315.8 secs

     total energy              =    -139.68440928 Ry
     Harris-Foulkes estimate   =    -140.32167020 Ry
     estimated scf accuracy    <       0.08360735 Ry

     iteration #  2     ecut=   100.00 Ry     beta=0.30
     Davidson diagonalization with overlap
     ethr =  3.48E-04,  avg # of iterations =  3.0

     total cpu time spent up to now is      335.9 secs

     total energy              =    -139.72572017 Ry
     Harris-Foulkes estimate   =    -139.72706701 Ry
     estimated scf accuracy    <       0.00873275 Ry

     iteration #  3     ecut=   100.00 Ry     beta=0.30
     Davidson diagonalization with overlap
     ethr =  3.64E-05,  avg # of iterations =  1.0

     total cpu time spent up to now is      348.7 secs

     total energy              =    -139.72326822 Ry
     Harris-Foulkes estimate   =    -139.72593393 Ry
     estimated scf accuracy    <       0.00480430 Ry

     iteration #  4     ecut=   100.00 Ry     beta=0.30
     Davidson diagonalization with overlap
     ethr =  2.00E-05,  avg # of iterations =  3.0

     total cpu time spent up to now is      366.6 secs

     total energy              =    -139.72520399 Ry
     Harris-Foulkes estimate   =    -139.72545071 Ry
     estimated scf accuracy    <       0.00263080 Ry

     iteration #  5     ecut=   100.00 Ry     beta=0.30
     Davidson diagonalization with overlap
     ethr =  1.10E-05,  avg # of iterations =  1.0

     total cpu time spent up to now is      379.5 secs

     total energy              =    -139.72426961 Ry
     Harris-Foulkes estimate   =    -139.72522082 Ry
     estimated scf accuracy    <       0.00189291 Ry

     iteration #  6     ecut=   100.00 Ry     beta=0.30
     Davidson diagonalization with overlap
     ethr =  7.89E-06,  avg # of iterations =  3.0

     total cpu time spent up to now is      397.3 secs

     total energy              =    -139.72476730 Ry
     Harris-Foulkes estimate   =    -139.72482115 Ry
     estimated scf accuracy    <       0.00015839 Ry

     iteration #  7     ecut=   100.00 Ry     beta=0.30
     Davidson diagonalization with overlap
     ethr =  6.60E-07,  avg # of iterations =  2.0

     total cpu time spent up to now is      413.5 secs

     total energy              =    -139.72478139 Ry
     Harris-Foulkes estimate   =    -139.72478478 Ry
     estimated scf accuracy    <       0.00001334 Ry

     iteration #  8     ecut=   100.00 Ry     beta=0.30
     Davidson diagonalization with overlap
     ethr =  5.56E-08,  avg # of iterations =  2.0

     total cpu time spent up to now is      428.1 secs

     total energy              =    -139.72478169 Ry
     Harris-Foulkes estimate   =    -139.72478237 Ry
     estimated scf accuracy    <       0.00000317 Ry

     iteration #  9     ecut=   100.00 Ry     beta=0.30
     Davidson diagonalization with overlap
     ethr =  1.32E-08,  avg # of iterations =  2.2

     total cpu time spent up to now is      443.5 secs

     End of self-consistent calculation

          k = 0.0829 0.1437 0.0721 (  4531 PWs)   bands (ev):

   -30.2313 -12.1005 -11.8865 -11.5841  -9.5552  -7.3764   3.2144   4.3867
     5.3970   5.9105   6.7433   7.2794

          k = 0.0829 0.1437 0.2163 (  4541 PWs)   bands (ev):

   -30.2278 -12.3017 -11.8208 -11.5799  -9.2209  -7.5673   2.8117   3.8954
     5.5068   6.0628   6.7995   7.2567

          k = 0.0829 0.1437 0.3605 (  4548 PWs)   bands (ev):

   -30.2242 -12.4512 -11.7898 -11.5756  -8.7907  -7.8733   2.6796   3.2161
     5.8186   6.2629   6.6360   7.0738

          k = 0.0829 0.3352 0.0721 (  4545 PWs)   bands (ev):

   -30.1892 -12.4428 -11.9075 -11.6717  -8.9047  -7.6934   3.1239   3.2751
     5.2729   6.3526   6.4649   7.2715

          k = 0.0829 0.3352 0.2163 (  4549 PWs)   bands (ev):

   -30.1862 -12.3562 -12.0246 -11.6663  -8.9512  -7.5830   2.3695   2.9264
     5.2740   6.6271   7.0867   7.2575

          k = 0.0829 0.3352 0.3605 (  4546 PWs)   bands (ev):

   -30.1832 -12.2806 -12.1288 -11.6611  -8.8965  -7.6106   2.0719   2.5217
     5.3841   6.6609   7.1329   7.4076

          k = 0.0829 0.5268 0.0721 (  4557 PWs)   bands (ev):

   -30.1580 -12.7493 -11.7720 -11.7158  -8.5428  -7.9101   2.5107   3.1877
     5.2356   6.2420   6.7269   7.1452

          k = 0.0829 0.5268 0.2163 (  4553 PWs)   bands (ev):

   -30.1554 -12.6686 -11.7979 -11.7350  -8.8018  -7.6918   2.1321   2.6396
     5.2197   6.5197   7.0943   7.3030

          k = 0.0829 0.5268 0.3605 (  4556 PWs)   bands (ev):

   -30.1528 -12.5910 -11.8342 -11.7358  -8.9587  -7.5951   1.7966   2.3149
     5.1952   6.8743   7.1642   7.3356

          k = 0.0829-0.4310 0.0721 (  4549 PWs)   bands (ev):

   -30.1694 -12.6594 -11.7970 -11.7127  -8.4063  -8.1235   2.8180   3.4475
     5.2141   6.0267   6.6953   7.0127

          k = 0.0829-0.4310 0.2163 (  4548 PWs)   bands (ev):

   -30.1667 -12.5988 -11.8455 -11.7140  -8.5331  -8.0240   2.5003   2.8239
     5.4146   6.2736   6.9267   7.0481

          k = 0.0829-0.4310 0.3605 (  4557 PWs)   bands (ev):

   -30.1640 -12.5086 -11.9247 -11.7060  -8.8261  -7.7264   2.0817   2.3199
     5.3684   6.6627   7.1066   7.2605

          k = 0.0829-0.2394 0.0721 (  4535 PWs)   bands (ev):

   -30.2118 -12.2212 -11.9671 -11.6256  -9.1736  -7.5926   3.2372   4.0001
     5.3731   5.9738   6.5389   7.1314

          k = 0.0829-0.2394 0.2163 (  4532 PWs)   bands (ev):

   -30.2085 -12.2806 -11.9884 -11.6209  -8.9549  -7.7199   2.7228   3.4936
     5.5733   6.1917   6.7260   7.1390

          k = 0.0829-0.2394 0.3605 (  4555 PWs)   bands (ev):

   -30.2052 -12.3346 -12.0064 -11.6154  -8.7622  -7.8156   2.4580   2.8284
     5.7979   6.1976   6.8454   7.3070

          k = 0.0829-0.0479 0.0721 (  4547 PWs)   bands (ev):

   -30.2425 -12.1342 -11.6900 -11.5618  -9.8077  -7.2625   3.1807   4.7405
     5.3621   5.7182   7.0317   7.3917

          k = 0.0829-0.0479 0.2163 (  4538 PWs)   bands (ev):

   -30.2388 -12.3523 -11.6557 -11.5580  -9.3832  -7.5059   2.9084   4.1985
     5.4902   5.8854   6.9007   7.2147

          k = 0.0829-0.0479 0.3605 (  4540 PWs)   bands (ev):

   -30.2351 -12.5253 -11.6367 -11.5544  -8.8125  -7.9303   2.8709   3.4938
     5.8205   6.3585   6.4757   6.7825

          k = 0.2488 0.4310 0.0721 (  4559 PWs)   bands (ev):

   -30.1580 -12.5670 -12.0265 -11.7182  -8.3503  -8.0193   2.9035   2.9660
     4.6152   6.4685   6.6369   7.3744

          k = 0.2488 0.4310 0.2163 (  4556 PWs)   bands (ev):

   -30.1555 -12.4968 -12.0164 -11.7619  -8.5340  -7.9076   2.4341   2.5586
     4.9259   6.7504   6.8681   7.2380

          k = 0.2488 0.4310 0.3605 (  4549 PWs)   bands (ev):

   -30.1529 -12.4181 -12.0186 -11.7981  -8.6757  -7.8420   2.1100   2.1940
     5.2377   6.6724   6.9708   7.3634

          k = 0.2488 0.6225 0.0721 (  4559 PWs)   bands (ev):

   -30.1497 -12.5469 -12.1452 -11.6954  -8.1820  -8.1156   2.7619   2.9197
     4.4294   6.5633   6.6655   7.4345

          k = 0.2488 0.6225 0.2163 (  4568 PWs)   bands (ev):

   -30.1472 -12.4854 -12.1119 -11.7377  -8.3802  -8.0329   2.4181   2.4982
     4.7530   6.7585   6.9577   7.2105

          k = 0.2488 0.6225 0.3605 (  4556 PWs)   bands (ev):

   -30.1447 -12.4175 -12.0813 -11.7793  -8.5376  -7.9929   2.0973   2.1866
     5.1566   6.6516   7.0421   7.2365

          k = 0.2488-0.3352 0.0721 (  4544 PWs)   bands (ev):

   -30.1725 -12.5382 -11.9089 -11.7311  -8.6257  -7.8554   3.0161   3.1102
     4.9497   6.3698   6.5646   7.3131

          k = 0.2488-0.3352 0.2163 (  4551 PWs)   bands (ev):

   -30.1697 -12.4575 -11.9665 -11.7456  -8.7603  -7.7226   2.3770   2.7242
     5.1443   6.6988   6.9460   7.2306

          k = 0.2488-0.3352 0.3605 (  4549 PWs)   bands (ev):

   -30.1669 -12.3740 -12.0359 -11.7488  -8.8193  -7.6842   2.0438   2.3423
     5.3285   6.6518   7.0498   7.4393

          k = 0.2488-0.1437 0.0721 (  4543 PWs)   bands (ev):

   -30.2035 -12.3020 -11.9606 -11.6249  -9.1179  -7.5757   3.1673   3.5403
     5.3751   6.3125   6.4598   7.2933

          k = 0.2488-0.1437 0.2163 (  4539 PWs)   bands (ev):

   -30.2003 -12.2244 -12.0991 -11.6198  -9.0562  -7.5361   2.4573   3.1533
     5.3130   6.5534   7.0453   7.3481

          k = 0.2488-0.1437 0.3605 (  4560 PWs)   bands (ev):

   -30.1972 -12.2494 -12.1315 -11.6151  -8.8927  -7.6397   2.2083   2.7001
     5.4342   6.6738   7.1199   7.2620

          k = 0.4147 0.7183 0.0721 (  4568 PWs)   bands (ev):

   -30.1527 -12.6768 -11.9443 -11.7038  -8.3490  -8.0181   2.6074   3.0728
     4.7702   6.4299   6.6829   7.3091

          k = 0.4147 0.7183 0.2163 (  4565 PWs)   bands (ev):

   -30.1502 -12.6061 -11.9246 -11.7481  -8.5829  -7.8707   2.2787   2.5827
     4.9827   6.5805   7.0134   7.2739

          k = 0.4147 0.7183 0.3605 (  4544 PWs)   bands (ev):

   -30.1477 -12.5318 -11.9030 -11.7925  -8.7623  -7.7823   1.9413   2.2611
     5.1830   6.7524   7.0947   7.2600

          k = 0.4147-0.2394 0.0721 (  4549 PWs)   bands (ev):

   -30.1641 -12.7324 -11.7571 -11.6871  -8.6689  -7.8307   2.5495   3.2087
     5.4672   6.1782   6.7445   7.0656

          k = 0.4147-0.2394 0.2163 (  4544 PWs)   bands (ev):

   -30.1614 -12.6454 -11.8265 -11.6810  -8.9157  -7.5868   2.0810   2.6691
     5.2890   6.5533   7.2370   7.2594

          k = 0.4147-0.2394 0.3605 (  4565 PWs)   bands (ev):

   -30.1588 -12.5693 -11.8819 -11.6751  -9.0241  -7.5181   1.7630   2.3475
     5.2103   6.8718   7.2644   7.3764

          k =-0.0829-0.3352 0.0721 (  4545 PWs)   bands (ev):

   -30.1892 -12.4704 -11.8811 -11.6737  -8.7657  -7.8638   3.1115   3.6800
     5.2589   5.9599   6.6011   7.0340

          k =-0.0829-0.3352 0.2163 (  4549 PWs)   bands (ev):

   -30.1862 -12.4327 -11.9507 -11.6694  -8.6741  -7.9252   2.6521   3.0994
     5.5425   6.2353   6.8082   7.0081

          k =-0.0829-0.3352 0.3605 (  4546 PWs)   bands (ev):

   -30.1832 -12.3508 -12.0598 -11.6624  -8.7690  -7.7718   2.3123   2.4513
     5.5739   6.4198   7.0142   7.3257

          k =-0.0829-0.5268 0.0721 (  4557 PWs)   bands (ev):

   -30.1580 -12.7560 -11.7647 -11.7179  -8.3873  -8.0808   2.5585   3.2849
     5.2237   6.1342   6.7417   7.0686

          k =-0.0829-0.5268 0.2163 (  4553 PWs)   bands (ev):

   -30.1554 -12.6844 -11.7706 -11.7495  -8.6541  -7.8703   2.2679   2.6953
     5.2888   6.3725   7.0224   7.1919

          k =-0.0829-0.5268 0.3605 (  4556 PWs)   bands (ev):

   -30.1528 -12.6005 -11.8221 -11.7398  -8.9066  -7.6628   1.8712   2.3155
     5.2371   6.8119   7.1626   7.2484

          k =-0.0829 0.4310 0.0721 (  4549 PWs)   bands (ev):

   -30.1694 -12.6406 -11.8169 -11.7083  -8.6897  -7.8054   2.7393   3.1593
     5.2487   6.3296   6.6174   7.2145

          k =-0.0829 0.4310 0.2163 (  4548 PWs)   bands (ev):

   -30.1667 -12.5525 -11.8927 -11.7068  -8.8901  -7.5960   2.1746   2.6935
     5.2175   6.6373   7.1204   7.3197

          k =-0.0829 0.4310 0.3605 (  4557 PWs)   bands (ev):

   -30.1640 -12.4783 -11.9548 -11.7032  -8.9517  -7.5645   1.8677   2.3587
     5.2468   6.8370   7.1390   7.4329

          k =-0.0829 0.2394 0.0721 (  4535 PWs)   bands (ev):

   -30.2118 -12.1865 -12.0007 -11.6250  -9.2140  -7.5381   3.2004   3.8410
     5.3204   6.1689   6.5086   7.2979

          k =-0.0829 0.2394 0.2163 (  4532 PWs)   bands (ev):

   -30.2085 -12.2153 -12.0517 -11.6199  -9.0537  -7.5918   2.6076   3.3716
     5.3753   6.4197   6.9329   7.2548

          k =-0.0829 0.2394 0.3605 (  4555 PWs)   bands (ev):

   -30.2052 -12.3108 -12.0294 -11.6150  -8.8290  -7.7337   2.3714   2.8279
     5.5861   6.4375   7.0107   7.2393

          k =-0.0829 0.0479 0.0721 (  4547 PWs)   bands (ev):

   -30.2425 -12.1373 -11.6872 -11.5620  -9.8035  -7.2686   3.1912   4.7451
     5.4602   5.6328   7.1223   7.2379

          k =-0.0829 0.0479 0.2163 (  4538 PWs)   bands (ev):

   -30.2388 -12.3559 -11.6524 -11.5584  -9.3720  -7.5212   2.9247   4.2308
     5.6050   5.7731   6.8220   7.2166

          k =-0.0829 0.0479 0.3605 (  4540 PWs)   bands (ev):

   -30.2351 -12.5266 -11.6355 -11.5546  -8.7999  -7.9450   2.8783   3.5050
     5.9716   6.2242   6.3248   6.8929

          k =-0.2488-0.6225 0.0721 (  4559 PWs)   bands (ev):

   -30.1497 -12.5445 -12.1474 -11.6953  -8.2606  -8.0345   2.7480   2.9102
     4.4382   6.5944   6.6386   7.4523

          k =-0.2488-0.6225 0.2163 (  4568 PWs)   bands (ev):

   -30.1472 -12.4797 -12.1176 -11.7374  -8.4351  -7.9730   2.3765   2.5084
     4.7509   6.8035   6.9380   7.2293

          k =-0.2488-0.6225 0.3605 (  4556 PWs)   bands (ev):

   -30.1447 -12.4140 -12.0850 -11.7789  -8.5568  -7.9713   2.0753   2.1964
     5.1449   6.7040   7.0028   7.2516

          k =-0.2488 0.3352 0.0721 (  4544 PWs)   bands (ev):

   -30.1725 -12.5494 -11.8966 -11.7335  -8.5185  -7.9778   2.9917   3.3057
     4.9013   6.2403   6.6280   7.2090

          k =-0.2488 0.3352 0.2163 (  4551 PWs)   bands (ev):

   -30.1697 -12.4863 -11.9337 -11.7520  -8.6004  -7.9135   2.5426   2.7607
     5.2138   6.5062   6.9242   7.0951

          k =-0.2488 0.3352 0.3605 (  4549 PWs)   bands (ev):

   -30.1669 -12.3957 -12.0123 -11.7518  -8.7557  -7.7637   2.1766   2.2863
     5.4080   6.4989   7.0752   7.3761

          k =-0.2488 0.1437 0.0721 (  4543 PWs)   bands (ev):

   -30.2035 -12.3460 -11.9200 -11.6253  -9.0094  -7.7170   3.2162   3.9265
     5.5915   5.7089   6.5715   6.9774

          k =-0.2488 0.1437 0.2163 (  4539 PWs)   bands (ev):

   -30.2003 -12.3550 -11.9743 -11.6206  -8.8046  -7.8559   2.7315   3.4014
     5.8241   5.9614   6.6401   7.0674

          k =-0.2488 0.1437 0.3605 (  4560 PWs)   bands (ev):

   -30.1972 -12.3314 -12.0520 -11.6155  -8.7491  -7.8186   2.4315   2.6693
     5.6981   6.4162   6.7587   7.3345

          k =-0.4147 0.2394 0.0721 (  4549 PWs)   bands (ev):

   -30.1641 -12.7468 -11.7461 -11.6873  -8.3677  -8.1640   2.6398   3.4424
     5.5834   5.7879   6.7791   6.9049

          k =-0.4147 0.2394 0.2163 (  4544 PWs)   bands (ev):

   -30.1614 -12.6797 -11.7985 -11.6814  -8.6119  -7.9564   2.3633   2.8021
     5.4811   6.2455   6.9562   7.0844

          k =-0.4147 0.2394 0.3605 (  4565 PWs)   bands (ev):

   -30.1588 -12.5905 -11.8636 -11.6753  -8.9186  -7.6573   1.9294   2.3427
     5.2921   6.8655   7.1384   7.1873

!    total energy              =    -139.72478156 Ry
     Harris-Foulkes estimate   =    -139.72478195 Ry
     estimated scf accuracy    <       0.00000065 Ry

     The total energy is the sum of the following terms:

     one-electron contribution =     -29.94006420 Ry
     hartree contribution      =      27.94435923 Ry
     xc contribution           =     -25.80708155 Ry
     ewald contribution        =    -111.92199504 Ry

     convergence has been achieved in   9 iterations

     Forces acting on atoms (Ry/au):

     atom    1 type  3   force =    -0.00000000   -0.00000000   -0.00052025
     atom    2 type  2   force =     0.00000000    0.00000000    0.07136734
     atom    3 type  2   force =    -0.00000000    0.00000000   -0.07106414
     atom    4 type  1   force =    -0.00000000   -0.00000000   -0.18377127
     atom    5 type  1   force =     0.00000000   -0.00000000    0.18398833

     Total force =     0.278868     Total SCF correction =     0.000320


     entering subroutine stress ...

          total   stress  (Ry/bohr**3)                   (kbar)     P=  185.16
   0.00213083   0.00000000   0.00000000        313.46      0.00      0.00
   0.00000000   0.00213083  -0.00000000          0.00    313.46     -0.00
   0.00000000  -0.00000000  -0.00048550          0.00     -0.00    -71.42


     number of scf cycles    =   2
     number of bfgs steps    =   1

     enthalpy old            =    -139.2981292345 Ry
     enthalpy new            =    -139.3686141201 Ry

     CASE: enthalpy_new < enthalpy_old


     WARNING: bfgs curvature condition failed, Theta= 0.631
     uphill step: resetting bfgs history

     new trust radius        =       0.1839883261 bohr
     new conv_thr            =       0.0000010000 Ry

     new unit-cell volume =    259.61552 a.u.^3 (    38.47105 Ang^3 )

CELL_PARAMETERS (alat=  6.37640000)
   1.024060867   0.000000000  -0.000000000
  -0.512030434   0.886862726  -0.000000000
  -0.000000000  -0.000000000   1.102609728

ATOMIC_POSITIONS (crystal)
Ca      -0.000000000  -0.000000000  -0.000154772
O        0.333333333   0.666666667   0.302923810
O        0.666666667   0.333333333   0.696149071
H        0.333333333   0.666666667   0.630104823
H        0.666666667   0.333333333   0.368977068



     Writing output data file CaOH2_ambient.save
     NEW-OLD atomic charge density approx. for the potential
     NEW k-points:
        k(    1) = (   0.0813754   0.1409463   0.0755783), wk =   0.0370370
        k(    2) = (   0.0813754   0.1409463   0.2267348), wk =   0.0370370
        k(    3) = (   0.0813754   0.1409463   0.3778913), wk =   0.0370370
        k(    4) = (   0.0813754   0.3288746   0.0755783), wk =   0.0370370
        k(    5) = (   0.0813754   0.3288746   0.2267348), wk =   0.0370370
        k(    6) = (   0.0813754   0.3288746   0.3778913), wk =   0.0370370
        k(    7) = (   0.0813754   0.5168030   0.0755783), wk =   0.0370370
        k(    8) = (   0.0813754   0.5168030   0.2267348), wk =   0.0370370
        k(    9) = (   0.0813754   0.5168030   0.3778913), wk =   0.0370370
        k(   10) = (   0.0813754  -0.4228388   0.0755783), wk =   0.0370370
        k(   11) = (   0.0813754  -0.4228388   0.2267348), wk =   0.0370370
        k(   12) = (   0.0813754  -0.4228388   0.3778913), wk =   0.0370370
        k(   13) = (   0.0813754  -0.2349105   0.0755783), wk =   0.0370370
        k(   14) = (   0.0813754  -0.2349105   0.2267348), wk =   0.0370370
        k(   15) = (   0.0813754  -0.2349105   0.3778913), wk =   0.0370370
        k(   16) = (   0.0813754  -0.0469821   0.0755783), wk =   0.0185185
        k(   17) = (   0.0813754  -0.0469821   0.2267348), wk =   0.0185185
        k(   18) = (   0.0813754  -0.0469821   0.3778913), wk =   0.0185185
        k(   19) = (   0.2441261   0.4228388   0.0755783), wk =   0.0370370
        k(   20) = (   0.2441261   0.4228388   0.2267348), wk =   0.0370370
        k(   21) = (   0.2441261   0.4228388   0.3778913), wk =   0.0370370
        k(   22) = (   0.2441261   0.6107672   0.0755783), wk =   0.0370370
        k(   23) = (   0.2441261   0.6107672   0.2267348), wk =   0.0370370
        k(   24) = (   0.2441261   0.6107672   0.3778913), wk =   0.0370370
        k(   25) = (   0.2441261  -0.3288746   0.0755783), wk =   0.0370370
        k(   26) = (   0.2441261  -0.3288746   0.2267348), wk =   0.0370370
        k(   27) = (   0.2441261  -0.3288746   0.3778913), wk =   0.0370370
        k(   28) = (   0.2441261  -0.1409463   0.0755783), wk =   0.0185185
        k(   29) = (   0.2441261  -0.1409463   0.2267348), wk =   0.0185185
        k(   30) = (   0.2441261  -0.1409463   0.3778913), wk =   0.0185185
        k(   31) = (   0.4068769   0.7047314   0.0755783), wk =   0.0370370
        k(   32) = (   0.4068769   0.7047314   0.2267348), wk =   0.0370370
        k(   33) = (   0.4068769   0.7047314   0.3778913), wk =   0.0370370
        k(   34) = (   0.4068769  -0.2349105   0.0755783), wk =   0.0185185
        k(   35) = (   0.4068769  -0.2349105   0.2267348), wk =   0.0185185
        k(   36) = (   0.4068769  -0.2349105   0.3778913), wk =   0.0185185
        k(   37) = (  -0.0813754  -0.3288746   0.0755783), wk =   0.0370370
        k(   38) = (  -0.0813754  -0.3288746   0.2267348), wk =   0.0370370
        k(   39) = (  -0.0813754  -0.3288746   0.3778913), wk =   0.0370370
        k(   40) = (  -0.0813754  -0.5168030   0.0755783), wk =   0.0370370
        k(   41) = (  -0.0813754  -0.5168030   0.2267348), wk =   0.0370370
        k(   42) = (  -0.0813754  -0.5168030   0.3778913), wk =   0.0370370
        k(   43) = (  -0.0813754   0.4228388   0.0755783), wk =   0.0370370
        k(   44) = (  -0.0813754   0.4228388   0.2267348), wk =   0.0370370
        k(   45) = (  -0.0813754   0.4228388   0.3778913), wk =   0.0370370
        k(   46) = (  -0.0813754   0.2349105   0.0755783), wk =   0.0370370
        k(   47) = (  -0.0813754   0.2349105   0.2267348), wk =   0.0370370
        k(   48) = (  -0.0813754   0.2349105   0.3778913), wk =   0.0370370
        k(   49) = (  -0.0813754   0.0469821   0.0755783), wk =   0.0185185
        k(   50) = (  -0.0813754   0.0469821   0.2267348), wk =   0.0185185
        k(   51) = (  -0.0813754   0.0469821   0.3778913), wk =   0.0185185
        k(   52) = (  -0.2441261  -0.6107672   0.0755783), wk =   0.0370370
        k(   53) = (  -0.2441261  -0.6107672   0.2267348), wk =   0.0370370
        k(   54) = (  -0.2441261  -0.6107672   0.3778913), wk =   0.0370370
        k(   55) = (  -0.2441261   0.3288746   0.0755783), wk =   0.0370370
        k(   56) = (  -0.2441261   0.3288746   0.2267348), wk =   0.0370370
        k(   57) = (  -0.2441261   0.3288746   0.3778913), wk =   0.0370370
        k(   58) = (  -0.2441261   0.1409463   0.0755783), wk =   0.0185185
        k(   59) = (  -0.2441261   0.1409463   0.2267348), wk =   0.0185185
        k(   60) = (  -0.2441261   0.1409463   0.3778913), wk =   0.0185185
        k(   61) = (  -0.4068769   0.2349105   0.0755783), wk =   0.0185185
        k(   62) = (  -0.4068769   0.2349105   0.2267348), wk =   0.0185185
        k(   63) = (  -0.4068769   0.2349105   0.3778913), wk =   0.0185185
     extrapolated charge   23.80047, renormalised to   24.00000

     total cpu time spent up to now is      539.9 secs

     per-process dynamical memory:    21.2 Mb

     Self-consistent Calculation

     iteration #  1     ecut=   100.00 Ry     beta=0.30
     Davidson diagonalization with overlap
     ethr =  1.00E-06,  avg # of iterations =  7.7

     total cpu time spent up to now is      578.1 secs

     total energy              =    -139.83425433 Ry
     Harris-Foulkes estimate   =    -140.02611064 Ry
     estimated scf accuracy    <       0.02884216 Ry

     iteration #  2     ecut=   100.00 Ry     beta=0.30
     Davidson diagonalization with overlap
     ethr =  1.20E-04,  avg # of iterations =  2.0

     total cpu time spent up to now is      594.7 secs

     total energy              =    -139.83851127 Ry
     Harris-Foulkes estimate   =    -139.83938365 Ry
     estimated scf accuracy    <       0.00632684 Ry

     iteration #  3     ecut=   100.00 Ry     beta=0.30
     Davidson diagonalization with overlap
     ethr =  2.64E-05,  avg # of iterations =  1.0

     total cpu time spent up to now is      607.5 secs

     total energy              =    -139.83695139 Ry
     Harris-Foulkes estimate   =    -139.83860297 Ry
     estimated scf accuracy    <       0.00359189 Ry

     iteration #  4     ecut=   100.00 Ry     beta=0.30
     Davidson diagonalization with overlap
     ethr =  1.50E-05,  avg # of iterations =  2.0

     total cpu time spent up to now is      623.4 secs

     total energy              =    -139.83749870 Ry
     Harris-Foulkes estimate   =    -139.83752251 Ry
     estimated scf accuracy    <       0.00016241 Ry

     iteration #  5     ecut=   100.00 Ry     beta=0.30
     Davidson diagonalization with overlap
     ethr =  6.77E-07,  avg # of iterations =  2.0

     total cpu time spent up to now is      640.1 secs

     total energy              =    -139.83749684 Ry
     Harris-Foulkes estimate   =    -139.83752504 Ry
     estimated scf accuracy    <       0.00006047 Ry

     iteration #  6     ecut=   100.00 Ry     beta=0.30
     Davidson diagonalization with overlap
     ethr =  2.52E-07,  avg # of iterations =  2.0

     total cpu time spent up to now is      656.3 secs

     total energy              =    -139.83750255 Ry
     Harris-Foulkes estimate   =    -139.83750785 Ry
     estimated scf accuracy    <       0.00002141 Ry

     iteration #  7     ecut=   100.00 Ry     beta=0.30
     Davidson diagonalization with overlap
     ethr =  8.92E-08,  avg # of iterations =  1.5

     total cpu time spent up to now is      669.7 secs

     total energy              =    -139.83749972 Ry
     Harris-Foulkes estimate   =    -139.83750355 Ry
     estimated scf accuracy    <       0.00000679 Ry

     iteration #  8     ecut=   100.00 Ry     beta=0.30
     Davidson diagonalization with overlap
     ethr =  2.83E-08,  avg # of iterations =  3.0

     total cpu time spent up to now is      687.8 secs

     total energy              =    -139.83750223 Ry
     Harris-Foulkes estimate   =    -139.83750286 Ry
     estimated scf accuracy    <       0.00000233 Ry

     iteration #  9     ecut=   100.00 Ry     beta=0.30
     Davidson diagonalization with overlap
     ethr =  9.69E-09,  avg # of iterations =  2.0

     total cpu time spent up to now is      702.1 secs

     End of self-consistent calculation

          k = 0.0814 0.1409 0.0756 (  4531 PWs)   bands (ev):

   -30.1985 -11.9900 -11.8238 -11.5641  -9.8218  -7.4218   3.0234   3.9246
     5.3988   5.7699   7.1141   7.6304

          k = 0.0814 0.1409 0.2267 (  4541 PWs)   bands (ev):

   -30.1927 -12.2404 -11.7519 -11.5573  -9.4724  -7.5657   2.3911   3.5797
     5.5305   6.0623   7.0281   7.5457

          k = 0.0814 0.1409 0.3779 (  4548 PWs)   bands (ev):

   -30.1868 -12.4220 -11.7191 -11.5503  -9.0827  -7.7818   1.9987   3.1120
     5.8463   6.2563   6.8873   7.2938

          k = 0.0814 0.3289 0.0756 (  4545 PWs)   bands (ev):

   -30.1650 -12.3520 -11.8124 -11.6378  -9.1765  -7.7888   2.9701   3.2327
     5.2385   6.1999   6.8275   7.6861

          k = 0.0814 0.3289 0.2267 (  4549 PWs)   bands (ev):

   -30.1599 -12.2458 -11.9576 -11.6302  -9.2088  -7.6796   2.1448   2.8804
     5.2675   6.4351   7.3520   7.6653

          k = 0.0814 0.3289 0.3779 (  4546 PWs)   bands (ev):

   -30.1547 -12.1323 -12.1058 -11.6216  -9.1572  -7.6927   1.7472   2.4702
     5.3919   6.5153   7.4625   7.6364

          k = 0.0814 0.5168 0.0756 (  4557 PWs)   bands (ev):

   -30.1403 -12.6200 -11.7258 -11.6639  -8.7061  -8.1459   2.6069   3.1539
     5.1239   6.1044   7.1316   7.6237

          k = 0.0814 0.5168 0.2267 (  4553 PWs)   bands (ev):

   -30.1357 -12.5089 -11.7653 -11.6903  -8.9853  -7.9192   2.1566   2.5531
     5.1845   6.3774   7.4439   7.6616

          k = 0.0814 0.5168 0.3779 (  4556 PWs)   bands (ev):

   -30.1311 -12.3991 -11.8249 -11.6844  -9.1635  -7.8169   1.7786   2.1507
     5.1938   6.7420   7.4937   7.6099

          k = 0.0814-0.4228 0.0756 (  4549 PWs)   bands (ev):

   -30.1494 -12.5465 -11.7275 -11.6703  -8.6881  -8.2267   2.8275   3.3567
     5.1400   6.0521   6.9520   7.4824

          k = 0.0814-0.4228 0.2267 (  4548 PWs)   bands (ev):

   -30.1446 -12.4654 -11.7909 -11.6734  -8.7846  -8.1586   2.4180   2.7090
     5.3649   6.3006   7.1879   7.3847

          k = 0.0814-0.4228 0.3779 (  4557 PWs)   bands (ev):

   -30.1398 -12.3452 -11.8958 -11.6602  -9.0612  -7.8864   1.9266   2.2050
     5.3617   6.6136   7.3782   7.5128

          k = 0.0814-0.2349 0.0756 (  4535 PWs)   bands (ev):

   -30.1830 -12.1610 -11.8462 -11.5996  -9.4562  -7.6478   3.0583   3.6954
     5.3726   5.9617   6.8260   7.5123

          k = 0.0814-0.2349 0.2267 (  4532 PWs)   bands (ev):

   -30.1775 -12.2293 -11.8834 -11.5922  -9.2398  -7.7354   2.3741   3.3019
     5.5711   6.1566   7.0358   7.4136

          k = 0.0814-0.2349 0.3779 (  4555 PWs)   bands (ev):

   -30.1719 -12.3066 -11.8966 -11.5834  -9.0628  -7.7853   1.9147   2.7867
     5.7801   6.2056   7.0956   7.5125

          k = 0.0814-0.0470 0.0756 (  4547 PWs)   bands (ev):

   -30.2075 -11.9924 -11.6644 -11.5451 -10.0642  -7.3023   2.9929   4.1095
     5.3808   5.5994   7.3747   7.7170

          k = 0.0814-0.0470 0.2267 (  4538 PWs)   bands (ev):

   -30.2014 -12.2802 -11.6188 -11.5387  -9.6088  -7.4950   2.4403   3.7706
     5.5323   5.9210   7.1086   7.5120

          k = 0.0814-0.0470 0.3779 (  4540 PWs)   bands (ev):

   -30.1953 -12.4932 -11.5970 -11.5326  -9.0885  -7.8092   2.0861   3.3398
     5.8958   6.3321   6.7408   7.0316

          k = 0.2441 0.4228 0.0756 (  4559 PWs)   bands (ev):

   -30.1404 -12.4568 -11.9512 -11.6648  -8.6140  -8.1622   2.8526   3.0192
     4.5660   6.6494   6.7942   7.8467

          k = 0.2441 0.4228 0.2267 (  4556 PWs)   bands (ev):

   -30.1358 -12.3623 -11.9341 -11.7282  -8.7795  -8.0811   2.3097   2.5650
     4.8993   6.7529   7.1476   7.6304

          k = 0.2441 0.4228 0.3779 (  4549 PWs)   bands (ev):

   -30.1311 -12.2515 -11.9475 -11.7699  -8.9254  -8.0276   1.9227   2.1591
     5.2284   6.7688   7.2423   7.5567

          k = 0.2441 0.6108 0.0756 (  4559 PWs)   bands (ev):

   -30.1338 -12.4335 -12.0621 -11.6476  -8.4062  -8.3092   2.7879   2.9500
     4.3839   6.6985   6.8916   7.9259

          k = 0.2441 0.6108 0.2267 (  4568 PWs)   bands (ev):

   -30.1293 -12.3485 -12.0147 -11.7118  -8.6009  -8.2479   2.3803   2.4549
     4.7369   6.8587   7.1488   7.6313

          k = 0.2441 0.6108 0.3779 (  4556 PWs)   bands (ev):

   -30.1248 -12.2532 -11.9709 -11.7741  -8.7719  -8.2168   2.0247   2.0664
     5.1503   6.9415   7.1908   7.4027

          k = 0.2441-0.3289 0.0756 (  4544 PWs)   bands (ev):

   -30.1518 -12.4354 -11.8340 -11.6789  -8.8951  -7.9740   2.9126   3.1239
     4.8998   6.4366   6.7890   7.7507

          k = 0.2441-0.3289 0.2267 (  4551 PWs)   bands (ev):

   -30.1470 -12.3303 -11.9041 -11.7017  -9.0146  -7.8579   2.2075   2.7124
     5.1190   6.5649   7.2839   7.6132

          k = 0.2441-0.3289 0.3779 (  4549 PWs)   bands (ev):

   -30.1421 -12.2098 -12.0085 -11.6997  -9.0762  -7.8210   1.8034   2.2991
     5.3238   6.5938   7.3794   7.6525

          k = 0.2441-0.1409 0.0756 (  4543 PWs)   bands (ev):

   -30.1765 -12.2276 -11.8493 -11.5987  -9.3925  -7.6505   2.9993   3.3961
     5.3651   6.0958   6.8312   7.6957

          k = 0.2441-0.1409 0.2267 (  4539 PWs)   bands (ev):

   -30.1710 -12.1560 -12.0005 -11.5906  -9.3176  -7.5965   2.1691   3.0605
     5.3193   6.3890   7.2576   7.7317

          k = 0.2441-0.1409 0.3779 (  4560 PWs)   bands (ev):

   -30.1657 -12.2186 -12.0094 -11.5830  -9.1614  -7.6682   1.7788   2.6462
     5.4559   6.4904   7.4624   7.4872

          k = 0.4069 0.7047 0.0756 (  4568 PWs)   bands (ev):

   -30.1362 -12.5527 -11.8816 -11.6538  -8.5109  -8.2661   2.6789   3.0719
     4.6743   6.4420   7.0062   7.7979

          k = 0.4069 0.7047 0.2267 (  4565 PWs)   bands (ev):

   -30.1317 -12.4550 -11.8541 -11.7195  -8.7760  -8.1031   2.2954   2.4974
     4.9404   6.5985   7.2853   7.6498

          k = 0.4069 0.7047 0.3779 (  4544 PWs)   bands (ev):

   -30.1271 -12.3506 -11.8238 -11.7843  -8.9780  -8.0124   1.9214   2.0975
     5.1762   6.8305   7.3351   7.4902

          k = 0.4069-0.2349 0.0756 (  4549 PWs)   bands (ev):

   -30.1451 -12.6058 -11.6959 -11.6517  -8.8574  -8.0334   2.6298   3.1597
     5.4268   5.8865   7.1954   7.5321

          k = 0.4069-0.2349 0.2267 (  4544 PWs)   bands (ev):

   -30.1404 -12.4868 -11.7942 -11.6423  -9.1094  -7.7921   2.0704   2.6006
     5.2755   6.3195   7.5588   7.6650

          k = 0.4069-0.2349 0.3779 (  4565 PWs)   bands (ev):

   -30.1357 -12.3782 -11.8736 -11.6331  -9.2329  -7.7181   1.7026   2.2053
     5.2117   6.6854   7.6018   7.6552

          k =-0.0814-0.3289 0.0756 (  4545 PWs)   bands (ev):

   -30.1650 -12.3827 -11.7834 -11.6405  -9.0597  -7.9339   3.0031   3.5029
     5.2516   6.0449   6.7881   7.4624

          k =-0.0814-0.3289 0.2267 (  4549 PWs)   bands (ev):

   -30.1599 -12.3377 -11.8694 -11.6339  -8.9775  -7.9709   2.4007   2.9960
     5.5073   6.2465   7.1294   7.2804

          k =-0.0814-0.3289 0.3779 (  4546 PWs)   bands (ev):

   -30.1547 -12.2514 -11.9886 -11.6230  -9.0480  -7.8334   1.8977   2.4620
     5.5636   6.3900   7.2840   7.5434

          k =-0.0814-0.5168 0.0756 (  4557 PWs)   bands (ev):

   -30.1403 -12.6281 -11.7190 -11.6646  -8.4878  -8.3778   2.6498   3.2375
     5.1056   6.0688   7.0966   7.5529

          k =-0.0814-0.5168 0.2267 (  4553 PWs)   bands (ev):

   -30.1357 -12.5296 -11.7356 -11.7030  -8.8284  -8.1037   2.3212   2.5511
     5.2422   6.3269   7.3238   7.5417

          k =-0.0814-0.5168 0.3779 (  4556 PWs)   bands (ev):

   -30.1311 -12.4133 -11.8096 -11.6875  -9.1100  -7.8844   1.8802   2.1126
     5.2326   6.7456   7.3959   7.5658

          k =-0.0814 0.4228 0.0756 (  4549 PWs)   bands (ev):

   -30.1494 -12.5242 -11.7506 -11.6651  -8.9190  -7.9648   2.7546   3.1227
     5.1714   6.1556   7.0266   7.6657

          k =-0.0814 0.4228 0.2267 (  4548 PWs)   bands (ev):

   -30.1446 -12.4055 -11.8512 -11.6649  -9.1110  -7.7679   2.0903   2.6543
     5.1962   6.4304   7.4693   7.6982

          k =-0.0814 0.4228 0.3779 (  4557 PWs)   bands (ev):

   -30.1398 -12.2983 -11.9416 -11.6573  -9.1814  -7.7330   1.7238   2.2599
     5.2495   6.6552   7.5269   7.6683

          k =-0.0814 0.2349 0.0756 (  4535 PWs)   bands (ev):

   -30.1830 -12.1307 -11.8750 -11.5989  -9.4924  -7.5988   3.0252   3.5855
     5.3172   6.0833   6.8034   7.6784

          k =-0.0814 0.2349 0.2267 (  4532 PWs)   bands (ev):

   -30.1775 -12.1722 -11.9379 -11.5909  -9.3238  -7.6240   2.2686   3.2228
     5.3846   6.3282   7.1354   7.6152

          k =-0.0814 0.2349 0.3779 (  4555 PWs)   bands (ev):

   -30.1719 -12.2861 -11.9160 -11.5829  -9.1140  -7.7196   1.8555   2.7753
     5.6017   6.3621   7.2641   7.4747

          k =-0.0814 0.0470 0.0756 (  4547 PWs)   bands (ev):

   -30.2075 -11.9972 -11.6599 -11.5454 -10.0602  -7.3081   3.0012   4.1218
     5.4801   5.4940   7.5058   7.5504

          k =-0.0814 0.0470 0.2267 (  4538 PWs)   bands (ev):

   -30.2014 -12.2844 -11.6150 -11.5392  -9.5986  -7.5091   2.4551   3.7888
     5.6358   5.8167   7.0948   7.4735

          k =-0.0814 0.0470 0.3779 (  4540 PWs)   bands (ev):

   -30.1953 -12.4946 -11.5957 -11.5328  -9.0798  -7.8199   2.0935   3.3454
     6.0193   6.2219   6.6396   7.1010

          k =-0.2441-0.6108 0.0756 (  4559 PWs)   bands (ev):

   -30.1338 -12.4306 -12.0648 -11.6476  -8.4741  -8.2390   2.7743   2.9431
     4.3915   6.6949   6.9002   7.9397

          k =-0.2441-0.6108 0.2267 (  4568 PWs)   bands (ev):

   -30.1293 -12.3410 -12.0223 -11.7112  -8.6548  -8.1896   2.3317   2.4772
     4.7348   6.8490   7.1817   7.6467

          k =-0.2441-0.6108 0.3779 (  4556 PWs)   bands (ev):

   -30.1248 -12.2479 -11.9773 -11.7728  -8.7909  -8.1957   1.9875   2.0935
     5.1417   6.9620   7.1882   7.4082

          k =-0.2441 0.3289 0.0756 (  4544 PWs)   bands (ev):

   -30.1518 -12.4483 -11.8207 -11.6811  -8.8116  -8.0711   2.9287   3.2471
     4.8668   6.4129   6.7525   7.6635

          k =-0.2441 0.3289 0.2267 (  4551 PWs)   bands (ev):

   -30.1470 -12.3667 -11.8625 -11.7100  -8.8781  -8.0226   2.3477   2.7403
     5.1774   6.5371   7.1426   7.4797

          k =-0.2441 0.3289 0.3779 (  4549 PWs)   bands (ev):

   -30.1421 -12.2467 -11.9697 -11.7031  -9.0190  -7.8926   1.8849   2.2822
     5.3891   6.5366   7.3351   7.5879

          k =-0.2441 0.1409 0.0756 (  4543 PWs)   bands (ev):

   -30.1765 -12.2728 -11.8087 -11.5992  -9.2971  -7.7757   3.0575   3.6643
     5.5680   5.7438   6.8467   7.3706

          k =-0.2441 0.1409 0.2267 (  4539 PWs)   bands (ev):

   -30.1711 -12.2867 -11.8775 -11.5916  -9.1064  -7.8714   2.4207   3.2234
     5.7893   5.9642   7.0194   7.2894

          k =-0.2441 0.1409 0.3779 (  4560 PWs)   bands (ev):

   -30.1657 -12.2847 -11.9465 -11.5835  -9.0457  -7.8175   1.9241   2.6593
     5.7096   6.3081   7.0889   7.5414

          k =-0.4069 0.2349 0.0756 (  4549 PWs)   bands (ev):

   -30.1451 -12.6231 -11.6829 -11.6519  -8.5393  -8.3800   2.7092   3.3564
     5.5277   5.6633   7.1257   7.3757

          k =-0.4069 0.2349 0.2267 (  4544 PWs)   bands (ev):

   -30.1404 -12.5317 -11.7574 -11.6427  -8.8001  -8.1606   2.3881   2.6341
     5.4562   6.1646   7.3160   7.3737

          k =-0.4069 0.2349 0.3779 (  4565 PWs)   bands (ev):

   -30.1357 -12.4100 -11.8457 -11.6333  -9.1268  -7.8548   1.9037   2.1409
     5.2930   6.7024   7.4221   7.5188

!    total energy              =    -139.83750206 Ry
     Harris-Foulkes estimate   =    -139.83750237 Ry
     estimated scf accuracy    <       0.00000047 Ry

     The total energy is the sum of the following terms:

     one-electron contribution =     -29.48813869 Ry
     hartree contribution      =      27.82146576 Ry
     xc contribution           =     -25.94676247 Ry
     ewald contribution        =    -112.22406667 Ry

     convergence has been achieved in   9 iterations

     Forces acting on atoms (Ry/au):

     atom    1 type  3   force =    -0.00000000   -0.00000000   -0.00030812
     atom    2 type  2   force =    -0.00000000    0.00000000    0.07377882
     atom    3 type  2   force =    -0.00000000    0.00000000   -0.07357104
     atom    4 type  1   force =    -0.00000000    0.00000000   -0.20033505
     atom    5 type  1   force =     0.00000000    0.00000000    0.20043539

     Total force =     0.301935     Total SCF correction =     0.000147


     entering subroutine stress ...

          total   stress  (Ry/bohr**3)                   (kbar)     P=  205.76
   0.00241232  -0.00000000  -0.00000000        354.86     -0.00     -0.00
  -0.00000000   0.00241232  -0.00000000         -0.00    354.86     -0.00
  -0.00000000  -0.00000000  -0.00062837         -0.00     -0.00    -92.44


     number of scf cycles    =   3
     number of bfgs steps    =   2

     enthalpy old            =    -139.3686141201 Ry
     enthalpy new            =    -139.4845359116 Ry

     CASE: enthalpy_new < enthalpy_old


     WARNING: bfgs curvature condition failed, Theta= 0.746
     new trust radius        =       0.2536599705 bohr
     new conv_thr            =       0.0000010000 Ry

     new unit-cell volume =    237.84366 a.u.^3 (    35.24479 Ang^3 )

CELL_PARAMETERS (alat=  6.37640000)
   0.995508596   0.000000000   0.000000000
  -0.497754298   0.862135733  -0.000000000
  -0.000000000  -0.000000000   1.068917695

ATOMIC_POSITIONS (crystal)
Ca      -0.000000000  -0.000000000  -0.000596097
O        0.333333333   0.666666667   0.322124354
O        0.666666667   0.333333333   0.677168724
H        0.333333333   0.666666667   0.594246945
H        0.666666667   0.333333333   0.405056074



     Writing output data file CaOH2_ambient.save
     NEW-OLD atomic charge density approx. for the potential
     NEW k-points:
        k(    1) = (   0.0837093   0.1449888   0.0779605), wk =   0.0370370
        k(    2) = (   0.0837093   0.1449888   0.2338814), wk =   0.0370370
        k(    3) = (   0.0837093   0.1449888   0.3898024), wk =   0.0370370
        k(    4) = (   0.0837093   0.3383071   0.0779605), wk =   0.0370370
        k(    5) = (   0.0837093   0.3383071   0.2338814), wk =   0.0370370
        k(    6) = (   0.0837093   0.3383071   0.3898024), wk =   0.0370370
        k(    7) = (   0.0837093   0.5316255   0.0779605), wk =   0.0370370
        k(    8) = (   0.0837093   0.5316255   0.2338814), wk =   0.0370370
        k(    9) = (   0.0837093   0.5316255   0.3898024), wk =   0.0370370
        k(   10) = (   0.0837093  -0.4349663   0.0779605), wk =   0.0370370
        k(   11) = (   0.0837093  -0.4349663   0.2338814), wk =   0.0370370
        k(   12) = (   0.0837093  -0.4349663   0.3898024), wk =   0.0370370
        k(   13) = (   0.0837093  -0.2416480   0.0779605), wk =   0.0370370
        k(   14) = (   0.0837093  -0.2416480   0.2338814), wk =   0.0370370
        k(   15) = (   0.0837093  -0.2416480   0.3898024), wk =   0.0370370
        k(   16) = (   0.0837093  -0.0483296   0.0779605), wk =   0.0185185
        k(   17) = (   0.0837093  -0.0483296   0.2338814), wk =   0.0185185
        k(   18) = (   0.0837093  -0.0483296   0.3898024), wk =   0.0185185
        k(   19) = (   0.2511279   0.4349663   0.0779605), wk =   0.0370370
        k(   20) = (   0.2511279   0.4349663   0.2338814), wk =   0.0370370
        k(   21) = (   0.2511279   0.4349663   0.3898024), wk =   0.0370370
        k(   22) = (   0.2511279   0.6282847   0.0779605), wk =   0.0370370
        k(   23) = (   0.2511279   0.6282847   0.2338814), wk =   0.0370370
        k(   24) = (   0.2511279   0.6282847   0.3898024), wk =   0.0370370
        k(   25) = (   0.2511279  -0.3383071   0.0779605), wk =   0.0370370
        k(   26) = (   0.2511279  -0.3383071   0.2338814), wk =   0.0370370
        k(   27) = (   0.2511279  -0.3383071   0.3898024), wk =   0.0370370
        k(   28) = (   0.2511279  -0.1449888   0.0779605), wk =   0.0185185
        k(   29) = (   0.2511279  -0.1449888   0.2338814), wk =   0.0185185
        k(   30) = (   0.2511279  -0.1449888   0.3898024), wk =   0.0185185
        k(   31) = (   0.4185465   0.7249439   0.0779605), wk =   0.0370370
        k(   32) = (   0.4185465   0.7249439   0.2338814), wk =   0.0370370
        k(   33) = (   0.4185465   0.7249439   0.3898024), wk =   0.0370370
        k(   34) = (   0.4185465  -0.2416480   0.0779605), wk =   0.0185185
        k(   35) = (   0.4185465  -0.2416480   0.2338814), wk =   0.0185185
        k(   36) = (   0.4185465  -0.2416480   0.3898024), wk =   0.0185185
        k(   37) = (  -0.0837093  -0.3383071   0.0779605), wk =   0.0370370
        k(   38) = (  -0.0837093  -0.3383071   0.2338814), wk =   0.0370370
        k(   39) = (  -0.0837093  -0.3383071   0.3898024), wk =   0.0370370
        k(   40) = (  -0.0837093  -0.5316255   0.0779605), wk =   0.0370370
        k(   41) = (  -0.0837093  -0.5316255   0.2338814), wk =   0.0370370
        k(   42) = (  -0.0837093  -0.5316255   0.3898024), wk =   0.0370370
        k(   43) = (  -0.0837093   0.4349663   0.0779605), wk =   0.0370370
        k(   44) = (  -0.0837093   0.4349663   0.2338814), wk =   0.0370370
        k(   45) = (  -0.0837093   0.4349663   0.3898024), wk =   0.0370370
        k(   46) = (  -0.0837093   0.2416480   0.0779605), wk =   0.0370370
        k(   47) = (  -0.0837093   0.2416480   0.2338814), wk =   0.0370370
        k(   48) = (  -0.0837093   0.2416480   0.3898024), wk =   0.0370370
        k(   49) = (  -0.0837093   0.0483296   0.0779605), wk =   0.0185185
        k(   50) = (  -0.0837093   0.0483296   0.2338814), wk =   0.0185185
        k(   51) = (  -0.0837093   0.0483296   0.3898024), wk =   0.0185185
        k(   52) = (  -0.2511279  -0.6282847   0.0779605), wk =   0.0370370
        k(   53) = (  -0.2511279  -0.6282847   0.2338814), wk =   0.0370370
        k(   54) = (  -0.2511279  -0.6282847   0.3898024), wk =   0.0370370
        k(   55) = (  -0.2511279   0.3383071   0.0779605), wk =   0.0370370
        k(   56) = (  -0.2511279   0.3383071   0.2338814), wk =   0.0370370
        k(   57) = (  -0.2511279   0.3383071   0.3898024), wk =   0.0370370
        k(   58) = (  -0.2511279   0.1449888   0.0779605), wk =   0.0185185
        k(   59) = (  -0.2511279   0.1449888   0.2338814), wk =   0.0185185
        k(   60) = (  -0.2511279   0.1449888   0.3898024), wk =   0.0185185
        k(   61) = (  -0.4185465   0.2416480   0.0779605), wk =   0.0185185
        k(   62) = (  -0.4185465   0.2416480   0.2338814), wk =   0.0185185
        k(   63) = (  -0.4185465   0.2416480   0.3898024), wk =   0.0185185
     extrapolated charge   21.98615, renormalised to   24.00000

     total cpu time spent up to now is      798.5 secs

     per-process dynamical memory:    21.2 Mb

     Self-consistent Calculation

     iteration #  1     ecut=   100.00 Ry     beta=0.30
     Davidson diagonalization with overlap
     ethr =  1.00E-06,  avg # of iterations =  7.0

     total cpu time spent up to now is      838.5 secs

     total energy              =    -139.56185045 Ry
     Harris-Foulkes estimate   =    -141.61510714 Ry
     estimated scf accuracy    <       0.56657576 Ry

     iteration #  2     ecut=   100.00 Ry     beta=0.30
     Davidson diagonalization with overlap
     ethr =  2.36E-03,  avg # of iterations =  3.0

     total cpu time spent up to now is      858.0 secs

     total energy              =    -139.86397818 Ry
     Harris-Foulkes estimate   =    -139.86666754 Ry
     estimated scf accuracy    <       0.01718246 Ry

     iteration #  3     ecut=   100.00 Ry     beta=0.30
     Davidson diagonalization with overlap
     ethr =  7.16E-05,  avg # of iterations =  2.0

     total cpu time spent up to now is      873.1 secs

     total energy              =    -139.86075738 Ry
     Harris-Foulkes estimate   =    -139.86519215 Ry
     estimated scf accuracy    <       0.00875988 Ry

     iteration #  4     ecut=   100.00 Ry     beta=0.30
     Davidson diagonalization with overlap
     ethr =  3.65E-05,  avg # of iterations =  2.0

     total cpu time spent up to now is      890.1 secs

     total energy              =    -139.86315909 Ry
     Harris-Foulkes estimate   =    -139.86371747 Ry
     estimated scf accuracy    <       0.00180117 Ry

     iteration #  5     ecut=   100.00 Ry     beta=0.30
     Davidson diagonalization with overlap
     ethr =  7.50E-06,  avg # of iterations =  2.0

     total cpu time spent up to now is      905.6 secs

     total energy              =    -139.86311406 Ry
     Harris-Foulkes estimate   =    -139.86328532 Ry
     estimated scf accuracy    <       0.00034580 Ry

     iteration #  6     ecut=   100.00 Ry     beta=0.30
     Davidson diagonalization with overlap
     ethr =  1.44E-06,  avg # of iterations =  2.0

     total cpu time spent up to now is      922.5 secs

     total energy              =    -139.86319572 Ry
     Harris-Foulkes estimate   =    -139.86319818 Ry
     estimated scf accuracy    <       0.00001435 Ry

     iteration #  7     ecut=   100.00 Ry     beta=0.30
     Davidson diagonalization with overlap
     ethr =  5.98E-08,  avg # of iterations =  2.0

     total cpu time spent up to now is      936.6 secs

     total energy              =    -139.86319323 Ry
     Harris-Foulkes estimate   =    -139.86319650 Ry
     estimated scf accuracy    <       0.00000731 Ry

     iteration #  8     ecut=   100.00 Ry     beta=0.30
     Davidson diagonalization with overlap
     ethr =  3.05E-08,  avg # of iterations =  2.1

     total cpu time spent up to now is      953.2 secs

     End of self-consistent calculation

          k = 0.0837 0.1450 0.0780 (  4531 PWs)   bands (ev):

   -29.0309 -11.2155 -10.7117 -10.3648  -9.6559  -6.8895   3.2929   3.9859
     6.1931   6.5297   8.4103   8.9549

          k = 0.0837 0.1450 0.2339 (  4541 PWs)   bands (ev):

   -29.0213 -11.6095 -10.6001 -10.3546  -9.2265  -6.9967   2.4577   4.0926
     6.3109   6.8290   8.2383   8.8357

          k = 0.0837 0.1450 0.3898 (  4548 PWs)   bands (ev):

   -29.0117 -11.8765 -10.5474 -10.3441  -8.8187  -7.1512   1.9330   3.9315
     6.5883   6.9585   8.1822   8.5395

          k = 0.0837 0.3383 0.0780 (  4545 PWs)   bands (ev):

   -28.9849 -11.5737 -10.6849 -10.4545  -9.0299  -7.3953   3.2034   3.6813
     5.9387   6.8396   8.1583   9.0930

          k = 0.0837 0.3383 0.2339 (  4549 PWs)   bands (ev):

   -28.9767 -11.4214 -10.9257 -10.4442  -9.0506  -7.2684   2.4975   3.4588
     5.9552   7.0183   8.5565   9.1129

          k = 0.0837 0.3383 0.3898 (  4546 PWs)   bands (ev):

   -28.9685 -11.3578 -11.0391 -10.4306  -9.0190  -7.2767   2.0875   3.2336
     6.0414   7.1104   8.7708   8.9398

          k = 0.0837 0.5316 0.0780 (  4557 PWs)   bands (ev):

   -28.9508 -11.8259 -10.5890 -10.4639  -8.5541  -7.9105   2.9694   3.6683
     5.7121   6.7755   8.4678   9.0835

          k = 0.0837 0.5316 0.2339 (  4553 PWs)   bands (ev):

   -28.9436 -11.6185 -10.6567 -10.5145  -8.9303  -7.6864   2.7899   3.0615
     5.8088   6.9815   8.6255   9.1268

          k = 0.0837 0.5316 0.3898 (  4556 PWs)   bands (ev):

   -28.9365 -11.3859 -10.7465 -10.5130  -9.2440  -7.5939   2.5083   2.7687
     5.7896   7.3345   8.5875   9.1015

          k = 0.0837-0.4350 0.0780 (  4549 PWs)   bands (ev):

   -28.9633 -11.7745 -10.5660 -10.4851  -8.5349  -7.9462   3.1097   3.8489
     5.7907   6.8261   8.1943   8.9122

          k = 0.0837-0.4350 0.2339 (  4548 PWs)   bands (ev):

   -28.9558 -11.6414 -10.6499 -10.5056  -8.6777  -7.8921   2.7698   3.4321
     5.9980   7.0243   8.2731   8.8200

          k = 0.0837-0.4350 0.3898 (  4557 PWs)   bands (ev):

[...]
        Each G-vector array             0.22 Mb     (  28275)
        G-vector shells                 0.01 Mb     (   1348)
     Largest temporary arrays     est. size (Mb)     dimensions
        Auxiliary wavefunctions         3.63 Mb     (   4957,   48)
        Each subspace H/S matrix        0.04 Mb     (  48,  48)
        Each <psi_i|beta_j> matrix      0.00 Mb     (      9,   12)
        Arrays for rho mixing          17.58 Mb     (  72000,  16)

     Initial potential from superposition of free atoms

     starting charge   21.99998, renormalised to   24.00000
     Starting wfc are   14 randomized atomic wfcs

     Writing output data file CaOH2_ambient.save

     total cpu time spent up to now is     4489.4 secs

     per-process dynamical memory:    20.8 Mb

     Self-consistent Calculation

     iteration #  1     ecut=   100.00 Ry     beta=0.30
     Davidson diagonalization with overlap
     ethr =  1.00E-06,  avg # of iterations =  6.1

     total cpu time spent up to now is     4532.3 secs

     total energy              =    -140.17537339 Ry
     Harris-Foulkes estimate   =    -140.25211706 Ry
     estimated scf accuracy    <       0.41879070 Ry

     iteration #  2     ecut=   100.00 Ry     beta=0.30
     Davidson diagonalization with overlap
     ethr =  1.74E-03,  avg # of iterations =  1.0

     total cpu time spent up to now is     4547.1 secs

     total energy              =    -140.01628937 Ry
     Harris-Foulkes estimate   =    -140.17866033 Ry
     estimated scf accuracy    <       0.26191569 Ry

     iteration #  3     ecut=   100.00 Ry     beta=0.30
     Davidson diagonalization with overlap
     ethr =  1.09E-03,  avg # of iterations =  2.0

     total cpu time spent up to now is     4565.0 secs

     total energy              =    -140.05453791 Ry
     Harris-Foulkes estimate   =    -140.05827281 Ry
     estimated scf accuracy    <       0.01176139 Ry

     iteration #  4     ecut=   100.00 Ry     beta=0.30
     Davidson diagonalization with overlap
     ethr =  4.90E-05,  avg # of iterations =  2.0

     total cpu time spent up to now is     4582.7 secs

     total energy              =    -140.05609674 Ry
     Harris-Foulkes estimate   =    -140.05629483 Ry
     estimated scf accuracy    <       0.00149505 Ry

     iteration #  5     ecut=   100.00 Ry     beta=0.30
     Davidson diagonalization with overlap
     ethr =  6.23E-06,  avg # of iterations =  1.1

     total cpu time spent up to now is     4597.4 secs

     total energy              =    -140.05583212 Ry
     Harris-Foulkes estimate   =    -140.05615932 Ry
     estimated scf accuracy    <       0.00083566 Ry

     iteration #  6     ecut=   100.00 Ry     beta=0.30
     Davidson diagonalization with overlap
     ethr =  3.48E-06,  avg # of iterations =  2.0

     total cpu time spent up to now is     4615.8 secs

     total energy              =    -140.05590990 Ry
     Harris-Foulkes estimate   =    -140.05597597 Ry
     estimated scf accuracy    <       0.00013244 Ry

     iteration #  7     ecut=   100.00 Ry     beta=0.30
     Davidson diagonalization with overlap
     ethr =  5.52E-07,  avg # of iterations =  2.0

     total cpu time spent up to now is     4635.9 secs

     total energy              =    -140.05595731 Ry
     Harris-Foulkes estimate   =    -140.05593814 Ry
     estimated scf accuracy    <       0.00003397 Ry

     iteration #  8     ecut=   100.00 Ry     beta=0.30
     Davidson diagonalization with overlap
     ethr =  1.42E-07,  avg # of iterations =  2.9

     total cpu time spent up to now is     4656.9 secs

     total energy              =    -140.05592314 Ry
     Harris-Foulkes estimate   =    -140.05597216 Ry
     estimated scf accuracy    <       0.00009444 Ry

     iteration #  9     ecut=   100.00 Ry     beta=0.30
     Davidson diagonalization with overlap
     ethr =  1.42E-07,  avg # of iterations =  3.0

     total cpu time spent up to now is     4678.8 secs

     total energy              =    -140.05594474 Ry
     Harris-Foulkes estimate   =    -140.05594526 Ry
     estimated scf accuracy    <       0.00000145 Ry

     iteration # 10     ecut=   100.00 Ry     beta=0.30
     Davidson diagonalization with overlap
     ethr =  6.06E-09,  avg # of iterations =  2.0

     total cpu time spent up to now is     4698.0 secs

     total energy              =    -140.05594502 Ry
     Harris-Foulkes estimate   =    -140.05594505 Ry
     estimated scf accuracy    <       0.00000012 Ry

     iteration # 11     ecut=   100.00 Ry     beta=0.30
     Davidson diagonalization with overlap
     ethr =  5.18E-10,  avg # of iterations =  3.0

     total cpu time spent up to now is     4721.4 secs

     total energy              =    -140.05594505 Ry
     Harris-Foulkes estimate   =    -140.05594506 Ry
     estimated scf accuracy    <       0.00000009 Ry

     iteration # 12     ecut=   100.00 Ry     beta=0.30
     Davidson diagonalization with overlap
     ethr =  3.77E-10,  avg # of iterations =  1.0

     total cpu time spent up to now is     4736.2 secs

     total energy              =    -140.05594503 Ry
     Harris-Foulkes estimate   =    -140.05594505 Ry
     estimated scf accuracy    <       0.00000004 Ry

     iteration # 13     ecut=   100.00 Ry     beta=0.30
     Davidson diagonalization with overlap
     ethr =  1.50E-10,  avg # of iterations =  2.0

     total cpu time spent up to now is     4755.1 secs

     End of self-consistent calculation

          k = 0.0818 0.1417 0.0663 (  4956 PWs)   bands (ev):

   -31.5636 -13.5426 -13.2704 -12.9035 -11.8869 -10.3665   0.0091   1.8795
     4.0956   4.2221   5.0566   5.5102

          k = 0.0818 0.1417 0.1990 (  4941 PWs)   bands (ev):

   -31.5624 -13.7249 -13.1816 -12.9020 -11.6456 -10.5193   0.1291   1.4534
     4.1560   4.5087   4.9675   5.4106

          k = 0.0818 0.1417 0.3317 (  4947 PWs)   bands (ev):

   -31.5612 -13.8497 -13.1404 -12.9004 -11.3175 -10.7692   0.3956   0.9162
     4.3739   4.6851   4.8843   5.2143

          k = 0.0818 0.3307 0.0663 (  4955 PWs)   bands (ev):

   -31.5301 -13.7791 -13.3263 -12.9786 -11.4311 -10.6128   0.3881   1.4168
     3.8369   4.1657   4.6099   5.4266

          k = 0.0818 0.3307 0.1990 (  4941 PWs)   bands (ev):

   -31.5291 -13.6924 -13.4324 -12.9759 -11.5025 -10.5135   0.2862   1.0677
     4.0683   4.1880   4.8669   5.4298

          k = 0.0818 0.3307 0.3317 (  4939 PWs)   bands (ev):

   -31.5281 -13.6443 -13.4999 -12.9739 -11.4753 -10.5294   0.3245   0.7373
     4.1700   4.4017   4.9719   5.3009

          k = 0.0818 0.5196 0.0663 (  4932 PWs)   bands (ev):

   -31.5053 -14.0533 -13.1086 -13.0496 -11.3176 -10.7055   0.7678   1.0095
     3.2898   4.2766   4.6658   5.2817

          k = 0.0818 0.5196 0.1990 (  4944 PWs)   bands (ev):

   -31.5045 -13.9915 -13.1359 -13.0494 -11.5178 -10.5488   0.4831   0.8932
     3.7146   4.1668   4.7919   5.3276

          k = 0.0818 0.5196 0.3317 (  4947 PWs)   bands (ev):

   -31.5037 -13.9362 -13.1519 -13.0519 -11.6402 -10.4796   0.2796   0.8045
     4.0486   4.2622   4.7166   5.3225

          k = 0.0818-0.4251 0.0663 (  4941 PWs)   bands (ev):

   -31.5144 -13.9818 -13.1788 -13.0193 -11.1039 -10.9286   0.7019   1.2040
     3.4326   4.3529   4.5454   5.1972

          k = 0.0818-0.4251 0.1990 (  4936 PWs)   bands (ev):

   -31.5135 -13.9423 -13.2080 -13.0188 -11.2425 -10.8152   0.6662   0.8804
     3.8501   4.3609   4.6042   5.1097

          k = 0.0818-0.4251 0.3317 (  4940 PWs)   bands (ev):

   -31.5126 -13.8670 -13.2692 -13.0151 -11.4806 -10.5907   0.4345   0.7055
     4.1858   4.4043   4.6205   5.2111

          k = 0.0818-0.2362 0.0663 (  4954 PWs)   bands (ev):

   -31.5481 -13.6099 -13.3795 -12.9382 -11.5810 -10.5463   0.2205   1.6923
     4.0420   4.2801   4.6701   5.3628

          k = 0.0818-0.2362 0.1990 (  4937 PWs)   bands (ev):

   -31.5470 -13.6897 -13.3543 -12.9364 -11.4246 -10.6508   0.2850   1.2715
     4.1363   4.5594   4.7999   5.1641

          k = 0.0818-0.2362 0.3317 (  4942 PWs)   bands (ev):

   -31.5459 -13.7356 -13.3569 -12.9342 -11.3039 -10.7184   0.4484   0.7595
     4.3543   4.5303   4.9827   5.1121

          k = 0.0818-0.0472 0.0663 (  4957 PWs)   bands (ev):

   -31.5726 -13.5805 -13.0607 -12.8851 -12.1207 -10.2727  -0.1059   1.9871
     4.1045   4.1758   5.3409   5.6053

          k = 0.0818-0.0472 0.1990 (  4940 PWs)   bands (ev):

   -31.5713 -13.7775 -13.0033 -12.8837 -11.7998 -10.4650   0.0602   1.5672
     4.1918   4.4151   5.1433   5.4867

          k = 0.0818-0.0472 0.3317 (  4939 PWs)   bands (ev):

   -31.5700 -13.9222 -12.9769 -12.8824 -11.3482 -10.8106   0.3872   1.0179
     4.4235   4.6785   4.9201   5.1930

          k = 0.2455 0.4251 0.0663 (  4934 PWs)   bands (ev):

   -31.5053 -13.8795 -13.3768 -13.0655 -11.0472 -10.8606   0.7126   1.0715
     3.3728   4.2143   4.4139   5.4696

          k = 0.2455 0.4251 0.1990 (  4931 PWs)   bands (ev):

   -31.5045 -13.8251 -13.3870 -13.0812 -11.2123 -10.7481   0.6052   0.8619
     3.6887   4.2788   4.6043   5.2587

          k = 0.2455 0.4251 0.3317 (  4941 PWs)   bands (ev):

   -31.5037 -13.7621 -13.4071 -13.0940 -11.3246 -10.6901   0.5115   0.6808
     4.0564   4.3428   4.7902   4.9570

          k = 0.2455 0.6141 0.0663 (  4918 PWs)   bands (ev):

   -31.4987 -13.8582 -13.4711 -13.0551 -10.9847 -10.8815   0.8225   0.9280
     3.2471   4.2403   4.3673   5.5137

          k = 0.2455 0.6141 0.1990 (  4932 PWs)   bands (ev):

   -31.4979 -13.8161 -13.4546 -13.0731 -11.1181 -10.8257   0.6902   0.8068
     3.5516   4.3419   4.5023   5.2571

          k = 0.2455 0.6141 0.3317 (  4933 PWs)   bands (ev):

   -31.4971 -13.7671 -13.4432 -13.0905 -11.2308 -10.7915   0.5489   0.7140
     3.9737   4.4412   4.5874   4.9150

          k = 0.2455-0.3307 0.0663 (  4936 PWs)   bands (ev):

   -31.5168 -13.8590 -13.3074 -13.0450 -11.2368 -10.7375   0.5595   1.2433
     3.5981   4.1851   4.5008   5.4285

          k = 0.2455-0.3307 0.1990 (  4942 PWs)   bands (ev):

   -31.5159 -13.7872 -13.3698 -13.0467 -11.3710 -10.6151   0.4425   0.9566
     3.9001   4.1994   4.7714   5.3061

          k = 0.2455-0.3307 0.3317 (  4951 PWs)   bands (ev):

   -31.5150 -13.7185 -13.4295 -13.0477 -11.4267 -10.5796   0.4052   0.6959
     4.1454   4.3134   4.9519   5.1001

          k = 0.2455-0.1417 0.0663 (  4947 PWs)   bands (ev):

   -31.5415 -13.6553 -13.3864 -12.9377 -11.5716 -10.5237   0.2484   1.5697
     4.0271   4.1456   4.6760   5.4761

          k = 0.2455-0.1417 0.1990 (  4947 PWs)   bands (ev):

   -31.5404 -13.5667 -13.5156 -12.9358 -11.5590 -10.4837   0.1999   1.1783
     4.0945   4.3184   4.8583   5.5234

          k = 0.2455-0.1417 0.3317 (  4933 PWs)   bands (ev):

   -31.5394 -13.6511 -13.4709 -12.9341 -11.4507 -10.5585   0.3183   0.7786
     4.2017   4.5035   4.9673   5.3543

          k = 0.4091 0.7086 0.0663 (  4933 PWs)   bands (ev):

   -31.5011 -13.9834 -13.2662 -13.0624 -11.1488 -10.7865   0.8447   0.9289
     3.2510   4.2521   4.4922   5.4109

          k = 0.4091 0.7086 0.1990 (  4938 PWs)   bands (ev):

   -31.5003 -13.9330 -13.2592 -13.0815 -11.3144 -10.6851   0.6057   0.8543
     3.6148   4.2548   4.6268   5.2766

          k = 0.4091 0.7086 0.3317 (  4937 PWs)   bands (ev):

   -31.4995 -13.8793 -13.2518 -13.1010 -11.4458 -10.6210   0.4091   0.7793
     4.0101   4.3444   4.6191   5.1178

          k = 0.4091-0.2362 0.0663 (  4942 PWs)   bands (ev):

   -31.5102 -14.0397 -13.1271 -12.9897 -11.3973 -10.6603   0.6656   1.0975
     3.3782   4.2646   4.7623   5.2414

          k = 0.4091-0.2362 0.1990 (  4943 PWs)   bands (ev):

   -31.5093 -13.9688 -13.1736 -12.9874 -11.6021 -10.4786   0.3895   0.9203
     3.8120   4.1171   4.8883   5.3883

          k = 0.4091-0.2362 0.3317 (  4935 PWs)   bands (ev):

   -31.5084 -13.9160 -13.2037 -12.9852 -11.6910 -10.4280   0.2295   0.7951
     4.0654   4.2604   4.8007   5.4129

          k =-0.0818-0.3307 0.0663 (  4955 PWs)   bands (ev):

   -31.5301 -13.8199 -13.2882 -12.9797 -11.2844 -10.7727   0.4732   1.4559
     3.7717   4.3275   4.5067   5.2479

          k =-0.0818-0.3307 0.1990 (  4941 PWs)   bands (ev):

   -31.5291 -13.8020 -13.3273 -12.9779 -11.2286 -10.8152   0.4935   1.0641
     4.0635   4.4414   4.7003   5.0261

          k =-0.0818-0.3307 0.3317 (  4939 PWs)   bands (ev):

   -31.5281 -13.7318 -13.4142 -12.9748 -11.3613 -10.6579   0.5374   0.6133
     4.3427   4.3714   4.8792   5.1055

          k =-0.0818-0.5196 0.0663 (  4932 PWs)   bands (ev):

   -31.5053 -14.0626 -13.0958 -13.0557 -11.2276 -10.8010   0.8671   0.9738
     3.2578   4.3298   4.6215   5.2181

          k =-0.0818-0.5196 0.1990 (  4944 PWs)   bands (ev):

   -31.5045 -14.0127 -13.1087 -13.0603 -11.4103 -10.6674   0.6198   0.8593
     3.6963   4.2536   4.6750   5.2263

          k =-0.0818-0.5196 0.3317 (  4947 PWs)   bands (ev):

   -31.5037 -13.9485 -13.1371 -13.0567 -11.5994 -10.5260   0.3312   0.7974
     4.0803   4.3339   4.5818   5.2855

          k =-0.0818 0.4251 0.0663 (  4941 PWs)   bands (ev):

   -31.5144 -13.9552 -13.2031 -13.0165 -11.3524 -10.6667   0.5829   1.1815
     3.4995   4.2174   4.6542   5.3555

          k =-0.0818 0.4251 0.1990 (  4936 PWs)   bands (ev):

   -31.5135 -13.8791 -13.2672 -13.0139 -11.5294 -10.5003   0.3730   0.9446
     3.8762   4.1261   4.8685   5.3972

          k =-0.0818 0.4251 0.3317 (  4940 PWs)   bands (ev):

   -31.5126 -13.8277 -13.3068 -13.0129 -11.5828 -10.4740   0.2819   0.7590
     4.0876   4.2929   4.8728   5.3246

          k =-0.0818 0.2362 0.0663 (  4954 PWs)   bands (ev):

   -31.5481 -13.5520 -13.4360 -12.9379 -11.6227 -10.4984   0.1869   1.6720
     4.1044   4.1812   4.6738   5.4846

          k =-0.0818 0.2362 0.1990 (  4937 PWs)   bands (ev):

   -31.5470 -13.6158 -13.4257 -12.9358 -11.5260 -10.5366   0.2063   1.2585
     4.1126   4.4550   4.8130   5.4336

          k =-0.0818 0.2362 0.3317 (  4942 PWs)   bands (ev):

   -31.5459 -13.7089 -13.3824 -12.9339 -11.3719 -10.6438   0.3728   0.7942
     4.2703   4.5562   4.9586   5.2630

          k =-0.0818 0.0472 0.0663 (  4957 PWs)   bands (ev):

   -31.5726 -13.5843 -13.0574 -12.8852 -12.1164 -10.2777  -0.1014   1.9903
     4.0985   4.1825   5.4339   5.4954

          k =-0.0818 0.0472 0.1990 (  4940 PWs)   bands (ev):

   -31.5713 -13.7819 -13.0000 -12.8839 -11.7880 -10.4781   0.0703   1.5712
     4.2018   4.4091   5.2066   5.3930

          k =-0.0818 0.0472 0.3317 (  4939 PWs)   bands (ev):

   -31.5700 -13.9238 -12.9757 -12.8825 -11.3335 -10.8260   0.3951   1.0166
     4.4505   4.6514   4.9341   5.1680

          k =-0.2455-0.6141 0.0663 (  4918 PWs)   bands (ev):

   -31.4987 -13.8547 -13.4745 -13.0549 -11.0307 -10.8344   0.7995   0.9413
     3.2519   4.2305   4.3763   5.5230

          k =-0.2455-0.6141 0.1990 (  4932 PWs)   bands (ev):

   -31.4979 -13.8081 -13.4628 -13.0725 -11.1587 -10.7829   0.6546   0.8256
     3.5547   4.3081   4.5431   5.2709

          k =-0.2455-0.6141 0.3317 (  4933 PWs)   bands (ev):

   -31.4971 -13.7624 -13.4482 -13.0901 -11.2457 -10.7756   0.5353   0.7201
     3.9691   4.3910   4.6769   4.8912

          k =-0.2455 0.3307 0.0663 (  4936 PWs)   bands (ev):

   -31.5168 -13.8754 -13.2906 -13.0469 -11.1171 -10.8636   0.6075   1.2553
     3.5689   4.2437   4.4529   5.3612

          k =-0.2455 0.3307 0.1990 (  4942 PWs)   bands (ev):

   -31.5159 -13.8289 -13.3268 -13.0506 -11.2251 -10.7743   0.5616   0.9361
     3.8950   4.3020   4.6568   5.1743

          k =-0.2455 0.3307 0.3317 (  4951 PWs)   bands (ev):

   -31.5150 -13.7494 -13.3978 -13.0496 -11.3720 -10.6411   0.5069   0.6372
     4.2001   4.3418   4.8244   5.0770

          k =-0.2455 0.1417 0.0663 (  4947 PWs)   bands (ev):

   -31.5415 -13.7217 -13.3242 -12.9379 -11.4589 -10.6502   0.3300   1.6158
     3.9302   4.3383   4.6293   5.2254

          k =-0.2455 0.1417 0.1990 (  4947 PWs)   bands (ev):

   -31.5404 -13.7521 -13.3372 -12.9362 -11.3011 -10.7710   0.3939   1.1979
     4.1302   4.6000   4.8104   4.9029

          k =-0.2455 0.1417 0.3317 (  4933 PWs)   bands (ev):

   -31.5394 -13.7330 -13.3920 -12.9343 -11.3139 -10.7105   0.5140   0.6771
     4.3958   4.4487   4.9744   5.0503

          k =-0.4091 0.2362 0.0663 (  4942 PWs)   bands (ev):

   -31.5102 -14.0597 -13.1132 -12.9898 -11.2090 -10.8595   0.7990   1.0995
     3.3123   4.3877   4.6687   5.0919

          k =-0.4091 0.2362 0.1990 (  4943 PWs)   bands (ev):

   -31.5093 -14.0148 -13.1389 -12.9876 -11.3752 -10.7283   0.6771   0.8492
     3.7767   4.3083   4.6562   5.1443

          k =-0.4091 0.2362 0.3317 (  4935 PWs)   bands (ev):

   -31.5084 -13.9431 -13.1818 -12.9853 -11.6067 -10.5242   0.3456   0.7722
     4.1434   4.3782   4.5630   5.3085

!    total energy              =    -140.05594504 Ry
     Harris-Foulkes estimate   =    -140.05594504 Ry
     estimated scf accuracy    <          2.4E-10 Ry

     The total energy is the sum of the following terms:

     one-electron contribution =     -43.62745645 Ry
     hartree contribution      =      33.35547445 Ry
     xc contribution           =     -26.14499190 Ry
     ewald contribution        =    -103.63897114 Ry

     convergence has been achieved in  13 iterations

     Forces acting on atoms (Ry/au):

     atom    1 type  3   force =     0.00000000   -0.00000000   -0.00031828
     atom    2 type  2   force =    -0.00000000   -0.00000000    0.00019047
     atom    3 type  2   force =    -0.00000000   -0.00000000    0.00001994
     atom    4 type  1   force =     0.00000000    0.00000000   -0.00002053
     atom    5 type  1   force =    -0.00000000   -0.00000000    0.00012840

     Total force =     0.000394     Total SCF correction =     0.000013


     entering subroutine stress ...

          total   stress  (Ry/bohr**3)                   (kbar)     P=  206.11
   0.00139338   0.00000000  -0.00000000        204.97      0.00     -0.00
   0.00000000   0.00139338  -0.00000000          0.00    204.97     -0.00
   0.00000000  -0.00000000   0.00141660          0.00     -0.00    208.39


     Writing output data file CaOH2_ambient.save

     init_run     :     53.33s CPU     54.28s WALL (       2 calls)
     electrons    :   3049.82s CPU   3101.95s WALL (      18 calls)
     update_pot   :    724.99s CPU    734.04s WALL (      16 calls)
     forces       :    268.24s CPU    269.73s WALL (      18 calls)
     stress       :    598.17s CPU    600.67s WALL (      18 calls)

     Called by init_run:
     wfcinit      :     15.89s CPU     16.72s WALL (       2 calls)
     potinit      :     15.80s CPU     15.84s WALL (       2 calls)

     Called by electrons:
     c_bands      :   2557.84s CPU   2599.18s WALL (     171 calls)
     sum_band     :    445.01s CPU    453.71s WALL (     171 calls)
     v_of_rho     :     22.52s CPU     23.03s WALL (     188 calls)
     mix_rho      :     25.55s CPU     26.44s WALL (     171 calls)

     Called by c_bands:
     init_us_2    :     77.83s CPU     83.38s WALL (   23940 calls)
     cegterg      :   2515.65s CPU   2529.49s WALL (   10773 calls)

     Called by *egterg:
     h_psi        :   1969.86s CPU   1979.68s WALL (   34892 calls)
     g_psi        :     16.29s CPU     16.38s WALL (   23993 calls)
     cdiaghg      :     16.97s CPU     17.08s WALL (   33695 calls)

     Called by h_psi:
     add_vuspsi   :     46.10s CPU     46.35s WALL (   34892 calls)

     General routines
     calbec       :     52.01s CPU     52.25s WALL (   37160 calls)
     fft          :      6.66s CPU      6.71s WALL (    2212 calls)
     ffts         :     11.31s CPU     11.36s WALL (    3754 calls)
     fftw         :   1834.21s CPU   1841.36s WALL (  836352 calls)
     davcio       :      8.11s CPU     36.18s WALL (   34713 calls)


     PWSCF        :     1h18m CPU        1h19m WALL


   This run was terminated on:   0:28:45  20Apr2014            

=------------------------------------------------------------------------------=
   JOB DONE.
=------------------------------------------------------------------------------=
