
     Program PWSCF v.5.0.2 (svn rev. 9392) starts on 18Apr2014 at 10: 3:27 

     This program is part of the open-source Quantum ESPRESSO suite
     for quantum simulation of materials; please cite
         "P. Giannozzi et al., J. Phys.:Condens. Matter 21 395502 (2009);
          URL http://www.quantum-espresso.org", 
     in publications or presentations arising from this work. More details at
     http://www.quantum-espresso.org/quote.php

     Serial version

     Current dimensions of program PWSCF are:
     Max number of different atomic species (ntypx) = 10
     Max number of k-points (npk) =  40000
     Max angular momentum in pseudopotentials (lmaxx) =  3
     Waiting for input...
     Reading input from standard input

     G-vector sticks info
     --------------------
     sticks:   dense  smooth     PW     G-vecs:    dense   smooth      PW
     Sum        1027    1027    367                34401    34401    7669



     bravais-lattice index     =            4
     lattice parameter (alat)  =       6.7864  a.u.
     unit-cell volume          =     356.1278 (a.u.)^3
     number of atoms/cell      =            5
     number of atomic types    =            3
     number of electrons       =        24.00
     number of Kohn-Sham states=           12
     kinetic-energy cutoff     =     100.0000  Ry
     charge density cutoff     =     320.0000  Ry
     convergence threshold     =      1.0E-06
     mixing beta               =       0.3000
     number of iterations used =           16  local-TF  mixing
     Exchange-correlation      = PBE ( 1 4 3 4 0)
     EXX-fraction              =        0.00
     nstep                     =           50


     celldm(1)=   6.786400  celldm(2)=   0.000000  celldm(3)=   1.315700
     celldm(4)=   0.000000  celldm(5)=   0.000000  celldm(6)=   0.000000

     crystal axes: (cart. coord. in units of alat)
               a(1) = (   1.000000   0.000000   0.000000 )  
               a(2) = (  -0.500000   0.866025   0.000000 )  
               a(3) = (   0.000000   0.000000   1.315700 )  

     reciprocal axes: (cart. coord. in units 2 pi/alat)
               b(1) = (  1.000000  0.577350 -0.000000 )  
               b(2) = (  0.000000  1.154701  0.000000 )  
               b(3) = (  0.000000 -0.000000  0.760052 )  


     PseudoPot. # 1 for H  read from file:
     /home/ilia/espresso/pseudo/H.pbe-sp-mt.ncpp
     MD5 check sum: 7a641936b52ccecd26bd1ad87cca5aed
     Pseudo is Norm-conserving, Zval =  1.0
     Generated by old ld1 code (numerical format)
     Using radial grid of 1076 points,  0 beta functions with: 

     PseudoPot. # 2 for O  read from file:
     /home/ilia/espresso/pseudo/O.pbe-sp-mt.ncpp
     MD5 check sum: 8a3d23d410d2f3ebfd0a39faacc72cbb
     Pseudo is Norm-conserving, Zval =  6.0
     Generated by old ld1 code (numerical format)
     Using radial grid of 1130 points,  1 beta functions with: 
                l(1) =   1

     PseudoPot. # 3 for Ca read from file:
     /home/ilia/espresso/pseudo/Ca.pbe-sp-mt_ion2.ncpp
     MD5 check sum: 4bcd670d05521f7b178fdf0a334578ab
     Pseudo is Norm-conserving, Zval = 10.0
     Generated by old ld1 code (numerical format)
     Using radial grid of 1153 points,  1 beta functions with: 
                l(1) =   1

     atomic species   valence    mass     pseudopotential
        H              1.00     1.00700     H ( 1.00)
        O              6.00    16.00000     O ( 1.00)
        Ca            10.00    40.07800     Ca( 1.00)

     12 Sym. Ops., with inversion, found



   Cartesian axes

     site n.     atom                  positions (alat units)
         1           Ca  tau(   1) = (   0.0000000   0.0000000   0.0000000  )
         2           O   tau(   2) = (   0.0000000   0.5773503   0.3065581  )
         3           O   tau(   3) = (   0.5000000   0.2886751   1.0091419  )
         4           H   tau(   4) = (   0.0000000   0.5773503   0.5710138  )
         5           H   tau(   5) = (   0.5000000   0.2886751   0.7446862  )

     number of k points=    63
                       cart. coord. in units 2pi/alat
        k(    1) = (   0.0833333   0.1443376   0.0633376), wk =   0.0370370
        k(    2) = (   0.0833333   0.1443376   0.1900129), wk =   0.0370370
        k(    3) = (   0.0833333   0.1443376   0.3166882), wk =   0.0370370
        k(    4) = (   0.0833333   0.3367877   0.0633376), wk =   0.0370370
        k(    5) = (   0.0833333   0.3367877   0.1900129), wk =   0.0370370
        k(    6) = (   0.0833333   0.3367877   0.3166882), wk =   0.0370370
        k(    7) = (   0.0833333   0.5292377   0.0633376), wk =   0.0370370
        k(    8) = (   0.0833333   0.5292377   0.1900129), wk =   0.0370370
        k(    9) = (   0.0833333   0.5292377   0.3166882), wk =   0.0370370
        k(   10) = (   0.0833333  -0.4330127   0.0633376), wk =   0.0370370
        k(   11) = (   0.0833333  -0.4330127   0.1900129), wk =   0.0370370
        k(   12) = (   0.0833333  -0.4330127   0.3166882), wk =   0.0370370
        k(   13) = (   0.0833333  -0.2405626   0.0633376), wk =   0.0370370
        k(   14) = (   0.0833333  -0.2405626   0.1900129), wk =   0.0370370
        k(   15) = (   0.0833333  -0.2405626   0.3166882), wk =   0.0370370
        k(   16) = (   0.0833333  -0.0481125   0.0633376), wk =   0.0185185
        k(   17) = (   0.0833333  -0.0481125   0.1900129), wk =   0.0185185
        k(   18) = (   0.0833333  -0.0481125   0.3166882), wk =   0.0185185
        k(   19) = (   0.2500000   0.4330127   0.0633376), wk =   0.0370370
        k(   20) = (   0.2500000   0.4330127   0.1900129), wk =   0.0370370
        k(   21) = (   0.2500000   0.4330127   0.3166882), wk =   0.0370370
        k(   22) = (   0.2500000   0.6254628   0.0633376), wk =   0.0370370
        k(   23) = (   0.2500000   0.6254628   0.1900129), wk =   0.0370370
        k(   24) = (   0.2500000   0.6254628   0.3166882), wk =   0.0370370
        k(   25) = (   0.2500000  -0.3367877   0.0633376), wk =   0.0370370
        k(   26) = (   0.2500000  -0.3367877   0.1900129), wk =   0.0370370
        k(   27) = (   0.2500000  -0.3367877   0.3166882), wk =   0.0370370
        k(   28) = (   0.2500000  -0.1443376   0.0633376), wk =   0.0185185
        k(   29) = (   0.2500000  -0.1443376   0.1900129), wk =   0.0185185
        k(   30) = (   0.2500000  -0.1443376   0.3166882), wk =   0.0185185
        k(   31) = (   0.4166667   0.7216878   0.0633376), wk =   0.0370370
        k(   32) = (   0.4166667   0.7216878   0.1900129), wk =   0.0370370
        k(   33) = (   0.4166667   0.7216878   0.3166882), wk =   0.0370370
        k(   34) = (   0.4166667  -0.2405626   0.0633376), wk =   0.0185185
        k(   35) = (   0.4166667  -0.2405626   0.1900129), wk =   0.0185185
        k(   36) = (   0.4166667  -0.2405626   0.3166882), wk =   0.0185185
        k(   37) = (  -0.0833333   0.3367877  -0.0633376), wk =   0.0370370
        k(   38) = (  -0.0833333   0.3367877  -0.1900129), wk =   0.0370370
        k(   39) = (  -0.0833333   0.3367877  -0.3166882), wk =   0.0370370
        k(   40) = (  -0.0833333   0.5292377  -0.0633376), wk =   0.0370370
        k(   41) = (  -0.0833333   0.5292377  -0.1900129), wk =   0.0370370
        k(   42) = (  -0.0833333   0.5292377  -0.3166882), wk =   0.0370370
        k(   43) = (  -0.0833333  -0.4330127  -0.0633376), wk =   0.0370370
        k(   44) = (  -0.0833333  -0.4330127  -0.1900129), wk =   0.0370370
        k(   45) = (  -0.0833333  -0.4330127  -0.3166882), wk =   0.0370370
        k(   46) = (  -0.0833333  -0.2405626  -0.0633376), wk =   0.0370370
        k(   47) = (  -0.0833333  -0.2405626  -0.1900129), wk =   0.0370370
        k(   48) = (  -0.0833333  -0.2405626  -0.3166882), wk =   0.0370370
        k(   49) = (  -0.0833333  -0.0481125  -0.0633376), wk =   0.0185185
        k(   50) = (  -0.0833333  -0.0481125  -0.1900129), wk =   0.0185185
        k(   51) = (  -0.0833333  -0.0481125  -0.3166882), wk =   0.0185185
        k(   52) = (  -0.2500000   0.6254628  -0.0633376), wk =   0.0370370
        k(   53) = (  -0.2500000   0.6254628  -0.1900129), wk =   0.0370370
        k(   54) = (  -0.2500000   0.6254628  -0.3166882), wk =   0.0370370
        k(   55) = (  -0.2500000  -0.3367877  -0.0633376), wk =   0.0370370
        k(   56) = (  -0.2500000  -0.3367877  -0.1900129), wk =   0.0370370
        k(   57) = (  -0.2500000  -0.3367877  -0.3166882), wk =   0.0370370
        k(   58) = (  -0.2500000  -0.1443376  -0.0633376), wk =   0.0185185
        k(   59) = (  -0.2500000  -0.1443376  -0.1900129), wk =   0.0185185
        k(   60) = (  -0.2500000  -0.1443376  -0.3166882), wk =   0.0185185
        k(   61) = (  -0.4166667  -0.2405626  -0.0633376), wk =   0.0185185
        k(   62) = (  -0.4166667  -0.2405626  -0.1900129), wk =   0.0185185
        k(   63) = (  -0.4166667  -0.2405626  -0.3166882), wk =   0.0185185

     Dense  grid:    34401 G-vectors     FFT dimensions: (  40,  40,  54)

     Largest allocated arrays     est. size (Mb)     dimensions
        Kohn-Sham Wavefunctions         1.10 Mb     (   6029,   12)
        NL pseudopotentials             0.83 Mb     (   6029,    9)
        Each V/rho on FFT grid          1.32 Mb     (  86400)
        Each G-vector array             0.26 Mb     (  34401)
        G-vector shells                 0.26 Mb     (  34401)
     Largest temporary arrays     est. size (Mb)     dimensions
        Auxiliary wavefunctions         4.42 Mb     (   6029,   48)
        Each subspace H/S matrix        0.04 Mb     (  48,  48)
        Each <psi_i|beta_j> matrix      0.00 Mb     (      9,   12)
        Arrays for rho mixing          21.09 Mb     (  86400,  16)

     Initial potential from superposition of free atoms

     starting charge   21.99998, renormalised to   24.00000
     Starting wfc are   14 randomized atomic wfcs

     total cpu time spent up to now is       51.4 secs

     per-process dynamical memory:    20.2 Mb

     Self-consistent Calculation

     iteration #  1     ecut=   100.00 Ry     beta=0.30
     Davidson diagonalization with overlap
     ethr =  1.00E-02,  avg # of iterations =  2.0

     total cpu time spent up to now is       73.5 secs

     total energy              =    -140.22488747 Ry
     Harris-Foulkes estimate   =    -140.30918376 Ry
     estimated scf accuracy    <       0.46285438 Ry

     iteration #  2     ecut=   100.00 Ry     beta=0.30
     Davidson diagonalization with overlap
     ethr =  1.93E-03,  avg # of iterations =  1.0

     total cpu time spent up to now is       88.7 secs

     total energy              =    -140.05196353 Ry
     Harris-Foulkes estimate   =    -140.23108251 Ry
     estimated scf accuracy    <       0.29014990 Ry

     iteration #  3     ecut=   100.00 Ry     beta=0.30
     Davidson diagonalization with overlap
     ethr =  1.21E-03,  avg # of iterations =  2.0

     total cpu time spent up to now is      107.4 secs

     total energy              =    -140.09816804 Ry
     Harris-Foulkes estimate   =    -140.09951753 Ry
     estimated scf accuracy    <       0.01159575 Ry

     iteration #  4     ecut=   100.00 Ry     beta=0.30
     Davidson diagonalization with overlap
     ethr =  4.83E-05,  avg # of iterations =  2.0

     total cpu time spent up to now is      125.1 secs

     total energy              =    -140.09822994 Ry
     Harris-Foulkes estimate   =    -140.09923559 Ry
     estimated scf accuracy    <       0.00564318 Ry

     iteration #  5     ecut=   100.00 Ry     beta=0.30
     Davidson diagonalization with overlap
     ethr =  2.35E-05,  avg # of iterations =  1.0

     total cpu time spent up to now is      140.2 secs

     total energy              =    -140.09776567 Ry
     Harris-Foulkes estimate   =    -140.09835720 Ry
     estimated scf accuracy    <       0.00145533 Ry

     iteration #  6     ecut=   100.00 Ry     beta=0.30
     Davidson diagonalization with overlap
     ethr =  6.06E-06,  avg # of iterations =  2.0

     total cpu time spent up to now is      158.9 secs

     total energy              =    -140.09797687 Ry
     Harris-Foulkes estimate   =    -140.09795961 Ry
     estimated scf accuracy    <       0.00014859 Ry

     iteration #  7     ecut=   100.00 Ry     beta=0.30
     Davidson diagonalization with overlap
     ethr =  6.19E-07,  avg # of iterations =  2.0

     total cpu time spent up to now is      175.8 secs

     total energy              =    -140.09798046 Ry
     Harris-Foulkes estimate   =    -140.09798947 Ry
     estimated scf accuracy    <       0.00005700 Ry

     iteration #  8     ecut=   100.00 Ry     beta=0.30
     Davidson diagonalization with overlap
     ethr =  2.37E-07,  avg # of iterations =  2.0

     total cpu time spent up to now is      194.2 secs

     total energy              =    -140.09797894 Ry
     Harris-Foulkes estimate   =    -140.09798619 Ry
     estimated scf accuracy    <       0.00002106 Ry

     iteration #  9     ecut=   100.00 Ry     beta=0.30
     Davidson diagonalization with overlap
     ethr =  8.77E-08,  avg # of iterations =  2.0

     total cpu time spent up to now is      213.8 secs

     total energy              =    -140.09798125 Ry
     Harris-Foulkes estimate   =    -140.09798143 Ry
     estimated scf accuracy    <       0.00000137 Ry

     iteration # 10     ecut=   100.00 Ry     beta=0.30
     Davidson diagonalization with overlap
     ethr =  5.69E-09,  avg # of iterations =  3.0

     total cpu time spent up to now is      236.9 secs

     total energy              =    -140.09798139 Ry
     Harris-Foulkes estimate   =    -140.09798209 Ry
     estimated scf accuracy    <       0.00000191 Ry

     iteration # 11     ecut=   100.00 Ry     beta=0.30
     Davidson diagonalization with overlap
     ethr =  5.69E-09,  avg # of iterations =  2.0

     total cpu time spent up to now is      256.6 secs

     End of self-consistent calculation

          k = 0.0833 0.1443 0.0633 (  6010 PWs)   bands (ev):

   -33.8063 -15.6452 -15.3588 -15.1562 -13.7619 -12.9561  -1.9587  -0.2106
     2.3608   2.4292   2.9928   3.3599

          k = 0.0833 0.1443 0.1900 (  6001 PWs)   bands (ev):

   -33.8061 -15.6892 -15.3415 -15.1559 -13.6411 -13.0548  -1.7960  -0.5387
     2.3968   2.5587   2.9938   3.2920

          k = 0.0833 0.1443 0.3167 (  6026 PWs)   bands (ev):

   -33.8060 -15.7278 -15.3285 -15.1555 -13.4445 -13.2306  -1.4952  -0.9887
     2.5084   2.6167   3.0086   3.1866

          k = 0.0833 0.3368 0.0633 (  6015 PWs)   bands (ev):

   -33.7873 -15.7298 -15.4863 -15.2074 -13.4706 -13.0732  -1.5761  -0.5128
     2.0637   2.4467   2.5560   3.2277

          k = 0.0833 0.3368 0.1900 (  6011 PWs)   bands (ev):

   -33.7872 -15.7056 -15.5122 -15.2067 -13.5235 -13.0166  -1.5597  -0.7435
     2.2554   2.4303   2.6765   3.2128

          k = 0.0833 0.3368 0.3167 (  6013 PWs)   bands (ev):

   -33.7870 -15.6983 -15.5238 -15.2062 -13.5109 -13.0276  -1.4292  -1.0380
     2.4340   2.5366   2.6944   3.1064

          k = 0.0833 0.5292 0.0633 (  6018 PWs)   bands (ev):

   -33.7733 -15.9400 -15.3345 -15.2608 -13.4910 -13.0035  -1.1571  -0.8306
     1.5589   2.5242   2.5865   3.0708

          k = 0.0833 0.5292 0.1900 (  6017 PWs)   bands (ev):

   -33.7732 -15.9230 -15.3415 -15.2600 -13.5711 -12.9350  -1.2997  -0.8879
     1.8193   2.5041   2.6285   3.0692

          k = 0.0833 0.5292 0.3167 (  6023 PWs)   bands (ev):

   -33.7731 -15.9090 -15.3459 -15.2598 -13.6190 -12.8998  -1.3841  -0.9723
     2.1432   2.4933   2.5839   3.0354

          k = 0.0833-0.4330 0.0633 (  6013 PWs)   bands (ev):

   -33.7785 -15.8749 -15.3927 -15.2360 -13.3747 -13.1334  -1.2775  -0.7213
     1.7418   2.4776   2.6179   3.0442

          k = 0.0833-0.4330 0.1900 (  6017 PWs)   bands (ev):

   -33.7783 -15.8641 -15.4000 -15.2355 -13.4204 -13.0949  -1.2257  -0.9585
     2.0068   2.4691   2.7457   2.8993

          k = 0.0833-0.4330 0.3167 (  6018 PWs)   bands (ev):

   -33.7782 -15.8432 -15.4143 -15.2347 -13.5278 -12.9928  -1.2685  -1.1131
     2.3289   2.4652   2.6516   2.9571

          k = 0.0833-0.2406 0.0633 (  6004 PWs)   bands (ev):

   -33.7975 -15.6105 -15.5151 -15.1793 -13.5553 -13.0625  -1.7688  -0.3537
     2.3237   2.4895   2.6343   3.2415

          k = 0.0833-0.2406 0.1900 (  6000 PWs)   bands (ev):

   -33.7973 -15.6444 -15.4955 -15.1789 -13.4647 -13.1416  -1.6411  -0.6636
     2.3792   2.6443   2.7301   3.1144

          k = 0.0833-0.2406 0.3167 (  6012 PWs)   bands (ev):

   -33.7971 -15.6615 -15.4908 -15.1784 -13.3783 -13.2163  -1.4047  -1.0746
     2.5054   2.6458   2.8561   3.0450

          k = 0.0833-0.0481 0.0633 (  6015 PWs)   bands (ev):

   -33.8114 -15.6802 -15.2255 -15.1441 -13.9033 -12.8989  -2.0604  -0.1285
     2.3612   2.3914   3.2473   3.4330

          k = 0.0833-0.0481 0.1900 (  6009 PWs)   bands (ev):

   -33.8112 -15.7277 -15.2171 -15.1438 -13.7555 -13.0148  -1.8718  -0.4659
     2.4059   2.4987   3.1720   3.3763

          k = 0.0833-0.0481 0.3167 (  6023 PWs)   bands (ev):

   -33.8110 -15.7714 -15.2104 -15.1435 -13.5254 -13.2155  -1.5351  -0.9364
     2.5067   2.5761   3.1242   3.2511

          k = 0.2500 0.4330 0.0633 (  6021 PWs)   bands (ev):

   -33.7734 -15.8053 -15.4849 -15.3065 -13.2720 -13.1603  -1.2029  -0.7815
     1.7916   2.2911   2.4226   3.2047

          k = 0.2500 0.4330 0.1900 (  6009 PWs)   bands (ev):

   -33.7732 -15.7902 -15.4898 -15.3089 -13.3526 -13.0925  -1.2286  -0.9245
     2.0050   2.3521   2.5360   3.0384

          k = 0.2500 0.4330 0.3167 (  6017 PWs)   bands (ev):

   -33.7731 -15.7742 -15.4957 -15.3110 -13.4048 -13.0534  -1.2317  -1.0762
     2.2631   2.4717   2.6442   2.7600

          k = 0.2500 0.6255 0.0633 (  6026 PWs)   bands (ev):

   -33.7696 -15.7968 -15.5330 -15.3127 -13.2675 -13.1339  -1.0539  -0.9041
     1.7199   2.2725   2.3521   3.2258

          k = 0.2500 0.6255 0.1900 (  6022 PWs)   bands (ev):

   -33.7695 -15.7859 -15.5297 -15.3170 -13.3101 -13.1093  -1.1084  -0.9966
     1.9284   2.3376   2.4611   3.0332

          k = 0.2500 0.6255 0.3167 (  5993 PWs)   bands (ev):

   -33.7693 -15.7735 -15.5277 -15.3211 -13.3524 -13.0849  -1.1815  -1.0631
     2.2392   2.4155   2.5631   2.7265

          k = 0.2500-0.3368 0.0633 (  6005 PWs)   bands (ev):

   -33.7798 -15.7865 -15.4649 -15.2650 -13.3606 -13.1242  -1.3905  -0.6439
     1.9110   2.3803   2.4865   3.1953

          k = 0.2500-0.3368 0.1900 (  6026 PWs)   bands (ev):

   -33.7797 -15.7657 -15.4821 -15.2643 -13.4422 -13.0473  -1.4016  -0.8310
     2.1159   2.4043   2.6210   3.0959

          k = 0.2500-0.3368 0.3167 (  6027 PWs)   bands (ev):

   -33.7796 -15.7500 -15.4951 -15.2640 -13.4718 -13.0236  -1.3393  -1.0586
     2.3249   2.5207   2.6846   2.9244

          k = 0.2500-0.1443 0.0633 (  6013 PWs)   bands (ev):

   -33.7938 -15.6488 -15.5183 -15.1784 -13.5532 -13.0384  -1.7184  -0.4080
     2.2365   2.4374   2.6124   3.2889

          k = 0.2500-0.1443 0.1900 (  6007 PWs)   bands (ev):

   -33.7936 -15.6305 -15.5441 -15.1780 -13.5603 -13.0218  -1.6604  -0.6759
     2.4212   2.4226   2.6853   3.3009

          k = 0.2500-0.1443 0.3167 (  6004 PWs)   bands (ev):

   -33.7934 -15.6517 -15.5336 -15.1776 -13.5003 -13.0741  -1.4680  -1.0270
     2.5058   2.5922   2.7025   3.1914

          k = 0.4167 0.7217 0.0633 (  6019 PWs)   bands (ev):

   -33.7710 -15.8885 -15.3913 -15.3175 -13.3865 -13.0555  -1.0626  -0.9034
     1.6158   2.3896   2.4706   3.1533

          k = 0.4167 0.7217 0.1900 (  6008 PWs)   bands (ev):

   -33.7708 -15.8750 -15.3901 -15.3221 -13.4457 -13.0117  -1.1813  -0.9535
     1.8551   2.4151   2.5599   3.0264

          k = 0.4167 0.7217 0.3167 (  6010 PWs)   bands (ev):

   -33.7707 -15.8613 -15.3887 -15.3268 -13.4957 -12.9774  -1.2841  -1.0069
     2.1769   2.4361   2.5916   2.8649

          k = 0.4167-0.2406 0.0633 (  6016 PWs)   bands (ev):

   -33.7761 -15.9300 -15.3555 -15.2124 -13.5245 -12.9950  -1.2718  -0.7433
     1.6029   2.5807   2.6103   3.0687

          k = 0.4167-0.2406 0.1900 (  6020 PWs)   bands (ev):

   -33.7759 -15.9104 -15.3655 -15.2119 -13.6153 -12.9122  -1.3942  -0.8392
     1.8619   2.5133   2.6662   3.1328

          k = 0.4167-0.2406 0.3167 (  6029 PWs)   bands (ev):

   -33.7758 -15.8975 -15.3717 -15.2114 -13.6516 -12.8856  -1.4324  -0.9698
     2.1736   2.5142   2.5998   3.1178

          k =-0.0833 0.3368-0.0633 (  6015 PWs)   bands (ev):

   -33.7873 -15.7450 -15.4740 -15.2076 -13.3661 -13.1793  -1.5263  -0.5314
     2.0636   2.4752   2.5642   3.1269

          k =-0.0833 0.3368-0.1900 (  6011 PWs)   bands (ev):

   -33.7872 -15.7401 -15.4834 -15.2070 -13.3246 -13.2191  -1.4329  -0.8128
     2.2696   2.4975   2.7373   2.9486

          k =-0.0833 0.3368-0.3167 (  6013 PWs)   bands (ev):

   -33.7870 -15.7184 -15.5066 -15.2064 -13.4366 -13.1037  -1.2778  -1.1625
     2.4840   2.5478   2.7311   2.9502

          k =-0.0833 0.5292-0.0633 (  6018 PWs)   bands (ev):

   -33.7733 -15.9432 -15.3322 -15.2614 -13.4603 -13.0350  -1.0815  -0.8907
     1.5582   2.5010   2.6276   3.0251

          k =-0.0833 0.5292-0.1900 (  6017 PWs)   bands (ev):

   -33.7732 -15.9296 -15.3367 -15.2611 -13.5234 -12.9843  -1.1765  -0.9823
     1.8293   2.4962   2.6601   2.9803

          k =-0.0833 0.5292-0.3167 (  6023 PWs)   bands (ev):

   -33.7731 -15.9124 -15.3434 -15.2603 -13.5989 -12.9207  -1.3350  -1.0079
     2.1699   2.4701   2.5922   2.9968

          k =-0.0833-0.4330-0.0633 (  6013 PWs)   bands (ev):

   -33.7785 -15.8658 -15.3989 -15.2356 -13.4704 -13.0357  -1.3587  -0.6750
     1.7404   2.5084   2.5534   3.1460

          k =-0.0833-0.4330-0.1900 (  6017 PWs)   bands (ev):

   -33.7783 -15.8447 -15.4136 -15.2348 -13.5590 -12.9523  -1.4308  -0.8177
     1.9749   2.4663   2.6598   3.1477

          k =-0.0833-0.4330-0.3167 (  6018 PWs)   bands (ev):

   -33.7782 -15.8329 -15.4218 -15.2343 -13.5824 -12.9362  -1.4127  -0.9990
     2.2514   2.5066   2.6368   3.0698

          k =-0.0833-0.2406-0.0633 (  6004 PWs)   bands (ev):

   -33.7975 -15.5860 -15.5380 -15.1792 -13.5834 -13.0339  -1.7866  -0.3500
     2.3824   2.4060   2.6283   3.3046

          k =-0.0833-0.2406-0.1900 (  6000 PWs)   bands (ev):

   -33.7973 -15.6150 -15.5218 -15.1788 -13.5378 -13.0672  -1.6857  -0.6449
     2.4028   2.5787   2.6813   3.2651

          k =-0.0833-0.2406-0.3167 (  6012 PWs)   bands (ev):

   -33.7971 -15.6503 -15.5005 -15.1783 -13.4422 -13.1516  -1.4545  -1.0369
     2.4983   2.6488   2.7830   3.1500

          k =-0.0833-0.0481-0.0633 (  6015 PWs)   bands (ev):

   -33.8114 -15.6809 -15.2252 -15.1441 -13.9007 -12.9014  -2.0582  -0.1285
     2.3527   2.3997   3.2923   3.3820

          k =-0.0833-0.0481-0.1900 (  6009 PWs)   bands (ev):

   -33.8112 -15.7290 -15.2165 -15.1438 -13.7487 -13.0215  -1.8665  -0.4672
     2.4049   2.4988   3.2584   3.2802

          k =-0.0833-0.0481-0.3167 (  6023 PWs)   bands (ev):

   -33.8110 -15.7720 -15.2101 -15.1435 -13.5173 -13.2235  -1.5299  -0.9397
     2.5144   2.5673   3.1781   3.1938

          k =-0.2500 0.6255-0.0633 (  6026 PWs)   bands (ev):

   -33.7696 -15.7957 -15.5340 -15.3126 -13.2815 -13.1197  -1.0715  -0.8889
     1.7186   2.2974   2.3280   3.2307

          k =-0.2500 0.6255-0.1900 (  6022 PWs)   bands (ev):

   -33.7695 -15.7835 -15.5320 -15.3167 -13.3290 -13.0901  -1.1453  -0.9643
     1.9226   2.3660   2.4357   3.0445

          k =-0.2500 0.6255-0.3167 (  5993 PWs)   bands (ev):

   -33.7693 -15.7723 -15.5290 -15.3209 -13.3599 -13.0772  -1.2001  -1.0467
     2.2250   2.4448   2.5397   2.7390

          k =-0.2500-0.3368-0.0633 (  6005 PWs)   bands (ev):

   -33.7798 -15.7924 -15.4599 -15.2654 -13.2506 -13.2352  -1.3596  -0.6598
     1.9165   2.3542   2.5168   3.1565

          k =-0.2500-0.3368-0.1900 (  6026 PWs)   bands (ev):

   -33.7797 -15.7788 -15.4708 -15.2652 -13.3511 -13.1404  -1.3226  -0.8823
     2.1474   2.3746   2.6647   2.9950

          k =-0.2500-0.3368-0.3167 (  6027 PWs)   bands (ev):

   -33.7796 -15.7574 -15.4886 -15.2644 -13.4386 -13.0577  -1.2533  -1.1316
     2.3675   2.4861   2.7617   2.8127

          k =-0.2500-0.1443-0.0633 (  6013 PWs)   bands (ev):

   -33.7938 -15.6750 -15.4957 -15.1784 -13.4770 -13.1161  -1.6737  -0.4200
     2.2084   2.5443   2.5920   3.1586

          k =-0.2500-0.1443-0.1900 (  6007 PWs)   bands (ev):

   -33.7936 -15.6880 -15.4936 -15.1781 -13.3662 -13.2190  -1.5475  -0.7285
     2.3376   2.6805   2.6975   2.9792

          k =-0.2500-0.1443-0.3167 (  6004 PWs)   bands (ev):

   -33.7934 -15.6797 -15.5091 -15.1777 -13.3976 -13.1784  -1.3379  -1.1288
     2.5102   2.6596   2.7441   3.0143

          k =-0.4167-0.2406-0.0633 (  6016 PWs)   bands (ev):

   -33.7761 -15.9368 -15.3520 -15.2124 -13.4584 -13.0626  -1.1711  -0.8110
     1.6009   2.5617   2.6838   2.9545

          k =-0.4167-0.2406-0.1900 (  6020 PWs)   bands (ev):

   -33.7759 -15.9246 -15.3579 -15.2119 -13.5132 -13.0172  -1.1632  -1.0094
     1.8815   2.5497   2.6953   2.9289

          k =-0.4167-0.2406-0.3167 (  6029 PWs)   bands (ev):

   -33.7758 -15.9049 -15.3676 -15.2115 -13.6092 -12.9295  -1.3264  -1.0473
     2.2262   2.5004   2.5869   3.0341

!    total energy              =    -140.09798162 Ry
     Harris-Foulkes estimate   =    -140.09798166 Ry
     estimated scf accuracy    <       0.00000008 Ry

     The total energy is the sum of the following terms:

     one-electron contribution =     -61.80244438 Ry
     hartree contribution      =      40.54927104 Ry
     xc contribution           =     -26.03034424 Ry
     ewald contribution        =     -92.81446403 Ry

     convergence has been achieved in  11 iterations

     Forces acting on atoms (Ry/au):

     atom    1 type  3   force =     0.00000000   -0.00000000    0.00000000
     atom    2 type  2   force =     0.00000000    0.00000000   -0.03558402
     atom    3 type  2   force =     0.00000000   -0.00000000    0.03558402
     atom    4 type  1   force =     0.00000000    0.00000000    0.05742705
     atom    5 type  1   force =     0.00000000   -0.00000000   -0.05742705

     Total force =     0.095541     Total SCF correction =     0.000059


     entering subroutine stress ...

          total   stress  (Ry/bohr**3)                   (kbar)     P=   89.54
   0.00042420   0.00000000   0.00000000         62.40      0.00      0.00
   0.00000000   0.00042420   0.00000000          0.00     62.40      0.00
   0.00000000   0.00000000   0.00097774          0.00      0.00    143.83


     BFGS Geometry Optimization

     number of scf cycles    =   1
     number of bfgs steps    =   0

     enthalpy new            =    -139.8558908234 Ry

     new trust radius        =       0.0574270482 bohr
     new conv_thr            =       0.0000010000 Ry

     new unit-cell volume =    354.21011 a.u.^3 (    52.48852 Ang^3 )

CELL_PARAMETERS (alat=  6.78640000)
   0.993610220   0.000000000   0.000000000
  -0.496805110   0.860491692   0.000000000
   0.000000000   0.000000000   1.325500397

ATOMIC_POSITIONS (crystal)
Ca      -0.000000000  -0.000000000  -0.000000000
O        0.333333333   0.666666667   0.229014722
O        0.666666667   0.333333333   0.770985278
H        0.333333333   0.666666667   0.440431617
H        0.666666667   0.333333333   0.559568383



     Writing output data file CaOH2_ambient.save
     NEW-OLD atomic charge density approx. for the potential
     NEW k-points:
        k(    1) = (   0.0838692   0.1452658   0.0628693), wk =   0.0370370
        k(    2) = (   0.0838692   0.1452658   0.1886080), wk =   0.0370370
        k(    3) = (   0.0838692   0.1452658   0.3143467), wk =   0.0370370
        k(    4) = (   0.0838692   0.3389535   0.0628693), wk =   0.0370370
        k(    5) = (   0.0838692   0.3389535   0.1886080), wk =   0.0370370
        k(    6) = (   0.0838692   0.3389535   0.3143467), wk =   0.0370370
        k(    7) = (   0.0838692   0.5326412   0.0628693), wk =   0.0370370
        k(    8) = (   0.0838692   0.5326412   0.1886080), wk =   0.0370370
        k(    9) = (   0.0838692   0.5326412   0.3143467), wk =   0.0370370
        k(   10) = (   0.0838692  -0.4357974   0.0628693), wk =   0.0370370
        k(   11) = (   0.0838692  -0.4357974   0.1886080), wk =   0.0370370
        k(   12) = (   0.0838692  -0.4357974   0.3143467), wk =   0.0370370
        k(   13) = (   0.0838692  -0.2421096   0.0628693), wk =   0.0370370
        k(   14) = (   0.0838692  -0.2421096   0.1886080), wk =   0.0370370
        k(   15) = (   0.0838692  -0.2421096   0.3143467), wk =   0.0370370
        k(   16) = (   0.0838692  -0.0484219   0.0628693), wk =   0.0185185
        k(   17) = (   0.0838692  -0.0484219   0.1886080), wk =   0.0185185
        k(   18) = (   0.0838692  -0.0484219   0.3143467), wk =   0.0185185
        k(   19) = (   0.2516077   0.4357974   0.0628693), wk =   0.0370370
        k(   20) = (   0.2516077   0.4357974   0.1886080), wk =   0.0370370
        k(   21) = (   0.2516077   0.4357974   0.3143467), wk =   0.0370370
        k(   22) = (   0.2516077   0.6294851   0.0628693), wk =   0.0370370
        k(   23) = (   0.2516077   0.6294851   0.1886080), wk =   0.0370370
        k(   24) = (   0.2516077   0.6294851   0.3143467), wk =   0.0370370
        k(   25) = (   0.2516077  -0.3389535   0.0628693), wk =   0.0370370
        k(   26) = (   0.2516077  -0.3389535   0.1886080), wk =   0.0370370
        k(   27) = (   0.2516077  -0.3389535   0.3143467), wk =   0.0370370
        k(   28) = (   0.2516077  -0.1452658   0.0628693), wk =   0.0185185
        k(   29) = (   0.2516077  -0.1452658   0.1886080), wk =   0.0185185
        k(   30) = (   0.2516077  -0.1452658   0.3143467), wk =   0.0185185
        k(   31) = (   0.4193462   0.7263289   0.0628693), wk =   0.0370370
        k(   32) = (   0.4193462   0.7263289   0.1886080), wk =   0.0370370
        k(   33) = (   0.4193462   0.7263289   0.3143467), wk =   0.0370370
        k(   34) = (   0.4193462  -0.2421096   0.0628693), wk =   0.0185185
        k(   35) = (   0.4193462  -0.2421096   0.1886080), wk =   0.0185185
        k(   36) = (   0.4193462  -0.2421096   0.3143467), wk =   0.0185185
        k(   37) = (  -0.0838692   0.3389535  -0.0628693), wk =   0.0370370
        k(   38) = (  -0.0838692   0.3389535  -0.1886080), wk =   0.0370370
        k(   39) = (  -0.0838692   0.3389535  -0.3143467), wk =   0.0370370
        k(   40) = (  -0.0838692   0.5326412  -0.0628693), wk =   0.0370370
        k(   41) = (  -0.0838692   0.5326412  -0.1886080), wk =   0.0370370
        k(   42) = (  -0.0838692   0.5326412  -0.3143467), wk =   0.0370370
        k(   43) = (  -0.0838692  -0.4357974  -0.0628693), wk =   0.0370370
        k(   44) = (  -0.0838692  -0.4357974  -0.1886080), wk =   0.0370370
        k(   45) = (  -0.0838692  -0.4357974  -0.3143467), wk =   0.0370370
        k(   46) = (  -0.0838692  -0.2421096  -0.0628693), wk =   0.0370370
        k(   47) = (  -0.0838692  -0.2421096  -0.1886080), wk =   0.0370370
        k(   48) = (  -0.0838692  -0.2421096  -0.3143467), wk =   0.0370370
        k(   49) = (  -0.0838692  -0.0484219  -0.0628693), wk =   0.0185185
        k(   50) = (  -0.0838692  -0.0484219  -0.1886080), wk =   0.0185185
        k(   51) = (  -0.0838692  -0.0484219  -0.3143467), wk =   0.0185185
        k(   52) = (  -0.2516077   0.6294851  -0.0628693), wk =   0.0370370
        k(   53) = (  -0.2516077   0.6294851  -0.1886080), wk =   0.0370370
        k(   54) = (  -0.2516077   0.6294851  -0.3143467), wk =   0.0370370
        k(   55) = (  -0.2516077  -0.3389535  -0.0628693), wk =   0.0370370
        k(   56) = (  -0.2516077  -0.3389535  -0.1886080), wk =   0.0370370
        k(   57) = (  -0.2516077  -0.3389535  -0.3143467), wk =   0.0370370
        k(   58) = (  -0.2516077  -0.1452658  -0.0628693), wk =   0.0185185
        k(   59) = (  -0.2516077  -0.1452658  -0.1886080), wk =   0.0185185
        k(   60) = (  -0.2516077  -0.1452658  -0.3143467), wk =   0.0185185
        k(   61) = (  -0.4193462  -0.2421096  -0.0628693), wk =   0.0185185
        k(   62) = (  -0.4193462  -0.2421096  -0.1886080), wk =   0.0185185
        k(   63) = (  -0.4193462  -0.2421096  -0.3143467), wk =   0.0185185
     extrapolated charge   23.88089, renormalised to   24.00000

     total cpu time spent up to now is      382.1 secs

     per-process dynamical memory:    24.8 Mb

     Self-consistent Calculation

     iteration #  1     ecut=   100.00 Ry     beta=0.30
     Davidson diagonalization with overlap
     ethr =  1.00E-06,  avg # of iterations =  5.0

     total cpu time spent up to now is      420.5 secs

     total energy              =    -140.09718387 Ry
     Harris-Foulkes estimate   =    -140.33438723 Ry
     estimated scf accuracy    <       0.00359560 Ry

     iteration #  2     ecut=   100.00 Ry     beta=0.30
     Davidson diagonalization with overlap
     ethr =  1.50E-05,  avg # of iterations =  3.0

     total cpu time spent up to now is      444.1 secs

     total energy              =    -140.09832794 Ry
     Harris-Foulkes estimate   =    -140.09870012 Ry
     estimated scf accuracy    <       0.00364227 Ry

     iteration #  3     ecut=   100.00 Ry     beta=0.30
     Davidson diagonalization with overlap
     ethr =  1.50E-05,  avg # of iterations =  1.0

     total cpu time spent up to now is      459.3 secs

     total energy              =    -140.09675935 Ry
     Harris-Foulkes estimate   =    -140.09834675 Ry
     estimated scf accuracy    <       0.00262602 Ry

     iteration #  4     ecut=   100.00 Ry     beta=0.30
     Davidson diagonalization with overlap
     ethr =  1.09E-05,  avg # of iterations =  2.0

     total cpu time spent up to now is      479.1 secs

     total energy              =    -140.09750135 Ry
     Harris-Foulkes estimate   =    -140.09767704 Ry
     estimated scf accuracy    <       0.00071003 Ry

     iteration #  5     ecut=   100.00 Ry     beta=0.30
     Davidson diagonalization with overlap
     ethr =  2.96E-06,  avg # of iterations =  1.2

     total cpu time spent up to now is      494.6 secs

     total energy              =    -140.09740545 Ry
     Harris-Foulkes estimate   =    -140.09753271 Ry
     estimated scf accuracy    <       0.00024445 Ry

     iteration #  6     ecut=   100.00 Ry     beta=0.30
     Davidson diagonalization with overlap
     ethr =  1.02E-06,  avg # of iterations =  2.0

     total cpu time spent up to now is      514.3 secs

     total energy              =    -140.09748663 Ry
     Harris-Foulkes estimate   =    -140.09748270 Ry
     estimated scf accuracy    <       0.00002808 Ry

     iteration #  7     ecut=   100.00 Ry     beta=0.30
     Davidson diagonalization with overlap
     ethr =  1.17E-07,  avg # of iterations =  2.0

     total cpu time spent up to now is      530.9 secs

     total energy              =    -140.09746830 Ry
     Harris-Foulkes estimate   =    -140.09748836 Ry
     estimated scf accuracy    <       0.00004605 Ry

     iteration #  8     ecut=   100.00 Ry     beta=0.30
     Davidson diagonalization with overlap
     ethr =  1.17E-07,  avg # of iterations =  2.0

     total cpu time spent up to now is      550.8 secs

     total energy              =    -140.09747446 Ry
     Harris-Foulkes estimate   =    -140.09747472 Ry
     estimated scf accuracy    <       0.00000129 Ry

     iteration #  9     ecut=   100.00 Ry     beta=0.30
     Davidson diagonalization with overlap
     ethr =  5.39E-09,  avg # of iterations =  2.0

     total cpu time spent up to now is      568.8 secs

     End of self-consistent calculation

          k = 0.0839 0.1453 0.0629 (  6010 PWs)   bands (ev):

   -33.6565 -15.5021 -15.2129 -15.0088 -13.3863 -12.5512  -1.8413   0.0765
     2.4180   2.4842   3.0602   3.4354

          k = 0.0839 0.1453 0.1886 (  6001 PWs)   bands (ev):

   -33.6562 -15.5407 -15.1986 -15.0085 -13.2642 -12.6549  -1.6563  -0.2955
     2.4540   2.6070   3.0778   3.3714

          k = 0.0839 0.1453 0.3143 (  6026 PWs)   bands (ev):

   -33.6561 -15.5754 -15.1875 -15.0081 -13.0648 -12.8370  -1.3013  -0.8156
     2.5597   2.6646   3.0976   3.2754

          k = 0.0839 0.3390 0.0629 (  6015 PWs)   bands (ev):

   -33.6355 -15.6010 -15.3397 -15.0635 -13.0783 -12.6703  -1.4376  -0.2497
     2.1196   2.5181   2.6091   3.2916

          k = 0.0839 0.3390 0.1886 (  6011 PWs)   bands (ev):

   -33.6353 -15.5801 -15.3625 -15.0629 -13.1310 -12.6132  -1.4205  -0.5071
     2.3237   2.5018   2.7493   3.2784

          k = 0.0839 0.3390 0.3143 (  6013 PWs)   bands (ev):

   -33.6352 -15.5730 -15.3739 -15.0624 -13.1166 -12.6261  -1.2851  -0.8224
     2.5075   2.6115   2.7752   3.1775

          k = 0.0839 0.5326 0.0629 (  6018 PWs)   bands (ev):

   -33.6200 -15.8229 -15.1875 -15.1192 -13.1041 -12.5830  -0.9866  -0.5989
     1.6047   2.5779   2.6706   3.1239

          k = 0.0839 0.5326 0.1886 (  6017 PWs)   bands (ev):

   -33.6199 -15.8079 -15.1939 -15.1184 -13.1821 -12.5144  -1.1448  -0.6640
     1.8795   2.5794   2.7094   3.1275

          k = 0.0839 0.5326 0.3143 (  6023 PWs)   bands (ev):

   -33.6198 -15.7955 -15.1981 -15.1182 -13.2287 -12.4787  -1.2395  -0.7548
     2.2092   2.5716   2.6830   3.0966

          k = 0.0839-0.4358 0.0629 (  6013 PWs)   bands (ev):

   -33.6257 -15.7523 -15.2466 -15.0935 -12.9872 -12.7192  -1.1161  -0.4774
     1.7919   2.5253   2.6981   3.1003

          k = 0.0839-0.4358 0.1886 (  6017 PWs)   bands (ev):

   -33.6256 -15.7425 -15.2536 -15.0931 -13.0299 -12.6827  -1.0723  -0.7289
     2.0736   2.5307   2.8347   2.9492

          k = 0.0839-0.4358 0.3143 (  6018 PWs)   bands (ev):

   -33.6254 -15.7243 -15.2663 -15.0923 -13.1357 -12.5802  -1.1375  -0.8810
     2.3983   2.5507   2.7313   3.0228

          k = 0.0839-0.2421 0.0629 (  6004 PWs)   bands (ev):

   -33.6467 -15.4666 -15.3757 -15.0335 -13.1695 -12.6622  -1.6406  -0.0776
     2.3868   2.5514   2.6847   3.3131

          k = 0.0839-0.2421 0.1886 (  6000 PWs)   bands (ev):

   -33.6465 -15.4958 -15.3597 -15.0331 -13.0744 -12.7474  -1.4973  -0.4260
     2.4452   2.6952   2.8044   3.1933

          k = 0.0839-0.2421 0.3143 (  6012 PWs)   bands (ev):

   -33.6464 -15.5100 -15.3572 -15.0327 -12.9761 -12.8350  -1.2317  -0.8837
     2.5713   2.7074   2.9261   3.1351

          k = 0.0839-0.0484 0.0629 (  6015 PWs)   bands (ev):

   -33.6621 -15.5383 -15.0767 -14.9957 -13.5322 -12.4910  -1.9482   0.1650
     2.4155   2.4435   3.3235   3.5106

          k = 0.0839-0.0484 0.1886 (  6009 PWs)   bands (ev):

   -33.6619 -15.5801 -15.0699 -14.9954 -13.3856 -12.6118  -1.7328  -0.2194
     2.4565   2.5451   3.2598   3.4580

          k = 0.0839-0.0484 0.3143 (  6023 PWs)   bands (ev):

   -33.6617 -15.6193 -15.0643 -14.9952 -13.1587 -12.8148  -1.3282  -0.7734
     2.5481   2.6168   3.2201   3.3426

          k = 0.2516 0.4358 0.0629 (  6021 PWs)   bands (ev):

   -33.6201 -15.6825 -15.3460 -15.1617 -12.8734 -12.7522  -1.0344  -0.5470
     1.8538   2.3458   2.4805   3.2656

          k = 0.2516 0.4358 0.1886 (  6009 PWs)   bands (ev):

   -33.6199 -15.6692 -15.3499 -15.1643 -12.9531 -12.6841  -1.0668  -0.7028
     2.0740   2.4189   2.6034   3.1032

          k = 0.2516 0.4358 0.3143 (  6017 PWs)   bands (ev):

   -33.6198 -15.6553 -15.3545 -15.1667 -13.0053 -12.6438  -1.0828  -0.8571
     2.3310   2.5499   2.7222   2.8322

          k = 0.2516 0.6295 0.0629 (  6026 PWs)   bands (ev):

   -33.6159 -15.6744 -15.4002 -15.1649 -12.8690 -12.7223  -0.8696  -0.6858
     1.7854   2.3230   2.4094   3.2877

          k = 0.2516 0.6295 0.1886 (  6022 PWs)   bands (ev):

   -33.6158 -15.6647 -15.3971 -15.1690 -12.9103 -12.6979  -0.9341  -0.7845
     1.9956   2.4007   2.5291   3.0994

          k = 0.2516 0.6295 0.3143 (  5993 PWs)   bands (ev):

   -33.6156 -15.6538 -15.3951 -15.1729 -12.9519 -12.6729  -1.0150  -0.8569
     2.2981   2.4928   2.6432   2.8018

          k = 0.2516-0.3390 0.0629 (  6005 PWs)   bands (ev):

   -33.6272 -15.6617 -15.3194 -15.1229 -12.9636 -12.7201  -1.2385  -0.3933
     1.9682   2.4458   2.5420   3.2560

          k = 0.2516-0.3390 0.1886 (  6026 PWs)   bands (ev):

   -33.6271 -15.6436 -15.3344 -15.1225 -13.0457 -12.6415  -1.2533  -0.6006
     2.1845   2.4771   2.6903   3.1593

          k = 0.2516-0.3390 0.3143 (  6027 PWs)   bands (ev):

   -33.6270 -15.6299 -15.3457 -15.1223 -13.0747 -12.6175  -1.1970  -0.8384
     2.3978   2.5978   2.7673   2.9926

          k = 0.2516-0.1453 0.0629 (  6013 PWs)   bands (ev):

   -33.6426 -15.5148 -15.3726 -15.0328 -13.1653 -12.6364  -1.5888  -0.1361
     2.2950   2.5044   2.6673   3.3570

          k = 0.2516-0.1453 0.1886 (  6007 PWs)   bands (ev):

   -33.6424 -15.4979 -15.3967 -15.0324 -13.1710 -12.6213  -1.5241  -0.4363
     2.4887   2.4907   2.7583   3.3700

          k = 0.2516-0.1453 0.3143 (  6004 PWs)   bands (ev):

   -33.6423 -15.5125 -15.3922 -15.0321 -13.1074 -12.6783  -1.3144  -0.8201
     2.5670   2.6794   2.7739   3.2664

          k = 0.4193 0.7263 0.0629 (  6019 PWs)   bands (ev):

   -33.6174 -15.7695 -15.2538 -15.1700 -12.9952 -12.6379  -0.8850  -0.6782
     1.6689   2.4390   2.5460   3.2106

          k = 0.4193 0.7263 0.1886 (  6008 PWs)   bands (ev):

   -33.6173 -15.7575 -15.2525 -15.1743 -13.0526 -12.5942  -1.0156  -0.7355
     1.9173   2.4819   2.6378   3.0875

          k = 0.4193 0.7263 0.3143 (  6010 PWs)   bands (ev):

   -33.6172 -15.7454 -15.2511 -15.1787 -13.1015 -12.5594  -1.1283  -0.7946
     2.2393   2.5140   2.6875   2.9262

          k = 0.4193-0.2421 0.0629 (  6016 PWs)   bands (ev):

   -33.6231 -15.8120 -15.2083 -15.0695 -13.1381 -12.5761  -1.1105  -0.5033
     1.6479   2.6636   2.6657   3.1245

          k = 0.4193-0.2421 0.1886 (  6020 PWs)   bands (ev):

   -33.6229 -15.7948 -15.2173 -15.0691 -13.2269 -12.4926  -1.2470  -0.6109
     1.9229   2.5926   2.7451   3.1928

          k = 0.4193-0.2421 0.3143 (  6029 PWs)   bands (ev):

   -33.6228 -15.7833 -15.2232 -15.0686 -13.2621 -12.4657  -1.2930  -0.7503
     2.2422   2.5912   2.6991   3.1807

          k =-0.0839 0.3390-0.0629 (  6015 PWs)   bands (ev):

   -33.6355 -15.6138 -15.3295 -15.0636 -12.9716 -12.7798  -1.3826  -0.2699
     2.1230   2.5221   2.6315   3.1921

          k =-0.0839 0.3390-0.1886 (  6011 PWs)   bands (ev):

   -33.6353 -15.6086 -15.3390 -15.0632 -12.9222 -12.8277  -1.2821  -0.5817
     2.3460   2.5542   2.7988   3.0228

          k =-0.0839 0.3390-0.3143 (  6013 PWs)   bands (ev):

   -33.6352 -15.5891 -15.3602 -15.0626 -13.0395 -12.7061  -1.1446  -0.9331
     2.5598   2.6292   2.7890   3.0311

          k =-0.0839 0.5326-0.0629 (  6018 PWs)   bands (ev):

   -33.6200 -15.8255 -15.1855 -15.1197 -13.0744 -12.6141  -0.9101  -0.6581
     1.6039   2.5509   2.7162   3.0749

          k =-0.0839 0.5326-0.1886 (  6017 PWs)   bands (ev):

   -33.6199 -15.8134 -15.1898 -15.1195 -13.1350 -12.5641  -1.0217  -0.7548
     1.8898   2.5642   2.7469   3.0343

          k =-0.0839 0.5326-0.3143 (  6023 PWs)   bands (ev):

   -33.6198 -15.7984 -15.1960 -15.1187 -13.2087 -12.4999  -1.1897  -0.7895
     2.2351   2.5557   2.6825   3.0578

          k =-0.0839-0.4358-0.0629 (  6013 PWs)   bands (ev):

   -33.6257 -15.7446 -15.2519 -15.0931 -13.0806 -12.6227  -1.2044  -0.4280
     1.7898   2.5827   2.6110   3.2047

          k =-0.0839-0.4358-0.1886 (  6017 PWs)   bands (ev):

   -33.6256 -15.7262 -15.2649 -15.0923 -13.1682 -12.5383  -1.2857  -0.5871
     2.0389   2.5418   2.7376   3.2092

          k =-0.0839-0.4358-0.3143 (  6018 PWs)   bands (ev):

   -33.6254 -15.7157 -15.2724 -15.0919 -13.1907 -12.5221  -1.2722  -0.7798
     2.3227   2.5796   2.7337   3.1341

          k =-0.0839-0.2421-0.0629 (  6004 PWs)   bands (ev):

   -33.6467 -15.4441 -15.3968 -15.0335 -13.1979 -12.6327  -1.6604  -0.0735
     2.4397   2.4743   2.6827   3.3740

          k =-0.0839-0.2421-0.1886 (  6000 PWs)   bands (ev):

   -33.6465 -15.4668 -15.3860 -15.0330 -13.1497 -12.6698  -1.5471  -0.4049
     2.4653   2.6436   2.7559   3.3370

          k =-0.0839-0.2421-0.3143 (  6012 PWs)   bands (ev):

   -33.6464 -15.4988 -15.3670 -15.0327 -13.0474 -12.7625  -1.2885  -0.8402
     2.5569   2.7272   2.8548   3.2304

          k =-0.0839-0.0484-0.0629 (  6015 PWs)   bands (ev):

   -33.6621 -15.5389 -15.0764 -14.9957 -13.5297 -12.4935  -1.9458   0.1649
     2.4067   2.4517   3.3659   3.4623

          k =-0.0839-0.0484-0.1886 (  6009 PWs)   bands (ev):

   -33.6619 -15.5813 -15.0694 -14.9955 -13.3788 -12.6186  -1.7268  -0.2210
     2.4572   2.5423   3.3480   3.3607

          k =-0.0839-0.0484-0.3143 (  6023 PWs)   bands (ev):

   -33.6617 -15.6198 -15.0641 -14.9952 -13.1511 -12.8224  -1.3215  -0.7780
     2.5608   2.6019   3.2769   3.2834

          k =-0.2516 0.6295-0.0629 (  6026 PWs)   bands (ev):

   -33.6159 -15.6735 -15.4011 -15.1648 -12.8826 -12.7084  -0.8878  -0.6704
     1.7838   2.3537   2.3802   3.2928

          k =-0.2516 0.6295-0.1886 (  6022 PWs)   bands (ev):

   -33.6158 -15.6627 -15.3990 -15.1688 -12.9291 -12.6785  -0.9703  -0.7535
     1.9893   2.4334   2.5006   3.1110

          k =-0.2516 0.6295-0.3143 (  5993 PWs)   bands (ev):

   -33.6156 -15.6527 -15.3961 -15.1728 -12.9595 -12.6651  -1.0326  -0.8418
     2.2853   2.5177   2.6242   2.8132

          k =-0.2516-0.3390-0.0629 (  6005 PWs)   bands (ev):

   -33.6272 -15.6666 -15.3151 -15.1233 -12.8532 -12.8319  -1.2047  -0.4104
     1.9755   2.4065   2.5818   3.2165

          k =-0.2516-0.3390-0.1886 (  6026 PWs)   bands (ev):

   -33.6271 -15.6544 -15.3250 -15.1233 -12.9517 -12.7383  -1.1693  -0.6537
     2.2209   2.4364   2.7360   3.0574

          k =-0.2516-0.3390-0.3143 (  6027 PWs)   bands (ev):

   -33.6270 -15.6358 -15.3405 -15.1227 -13.0406 -12.6530  -1.1240  -0.8969
     2.4391   2.5696   2.8295   2.8883

          k =-0.2516-0.1453-0.0629 (  6013 PWs)   bands (ev):

   -33.6426 -15.5369 -15.3536 -15.0328 -13.0879 -12.7165  -1.5392  -0.1492
     2.2709   2.6073   2.6366   3.2313

          k =-0.2516-0.1453-0.1886 (  6007 PWs)   bands (ev):

   -33.6424 -15.5467 -15.3541 -15.0325 -12.9691 -12.8286  -1.3992  -0.4945
     2.4103   2.7399   2.7447   3.0687

          k =-0.2516-0.1453-0.3143 (  6004 PWs)   bands (ev):

   -33.6423 -15.5374 -15.3703 -15.0321 -12.9985 -12.7901  -1.1749  -0.9284
     2.5912   2.7086   2.8172   3.1022

          k =-0.4193-0.2421-0.0629 (  6016 PWs)   bands (ev):

   -33.6231 -15.8178 -15.2054 -15.0696 -13.0740 -12.6429  -1.0028  -0.5741
     1.6457   2.6112   2.7745   3.0029

          k =-0.4193-0.2421-0.1886 (  6020 PWs)   bands (ev):

   -33.6229 -15.8068 -15.2110 -15.0691 -13.1261 -12.5988  -1.0171  -0.7730
     1.9435   2.6162   2.7817   2.9823

          k =-0.4193-0.2421-0.3143 (  6029 PWs)   bands (ev):

   -33.6228 -15.7896 -15.2198 -15.0687 -13.2199 -12.5106  -1.1871  -0.8245
     2.2937   2.5954   2.6639   3.0973

!    total energy              =    -140.09747446 Ry
     Harris-Foulkes estimate   =    -140.09747458 Ry
     estimated scf accuracy    <       0.00000041 Ry

     The total energy is the sum of the following terms:

     one-electron contribution =     -61.63633261 Ry
     hartree contribution      =      40.56195669 Ry
     xc contribution           =     -25.95018366 Ry
     ewald contribution        =     -93.07291488 Ry

     convergence has been achieved in   9 iterations

     Forces acting on atoms (Ry/au):

     atom    1 type  3   force =    -0.00000000    0.00000000   -0.00000000
     atom    2 type  2   force =    -0.00000000    0.00000000    0.05861805
     atom    3 type  2   force =     0.00000000   -0.00000000   -0.05861805
     atom    4 type  1   force =    -0.00000000   -0.00000000   -0.03033994
     atom    5 type  1   force =     0.00000000   -0.00000000    0.03033994

     Total force =     0.093344     Total SCF correction =     0.002248


     entering subroutine stress ...

          total   stress  (Ry/bohr**3)                   (kbar)     P=   58.64
   0.00054412   0.00000000  -0.00000000         80.04      0.00     -0.00
  -0.00000000   0.00054412   0.00000000         -0.00     80.04      0.00
  -0.00000000   0.00000000   0.00010759         -0.00      0.00     15.83


     number of scf cycles    =   2
     number of bfgs steps    =   1

     enthalpy old            =    -139.8558908234 Ry
     enthalpy new            =    -139.8566872789 Ry

     CASE: enthalpy_new < enthalpy_old

     new trust radius        =       0.0280201266 bohr
     new conv_thr            =       0.0000000796 Ry

     new unit-cell volume =    349.77051 a.u.^3 (    51.83064 Ang^3 )

CELL_PARAMETERS (alat=  6.78640000)
   0.990719700   0.000000000   0.000000000
  -0.495359850   0.857988428   0.000000000
  -0.000000000   0.000000000   1.316535572

ATOMIC_POSITIONS (crystal)
Ca      -0.000000000   0.000000000  -0.000000000
O        0.333333333   0.666666667   0.232129669
O        0.666666667   0.333333333   0.767870331
H        0.333333333   0.666666667   0.439488248
H        0.666666667   0.333333333   0.560511752



     Writing output data file CaOH2_ambient.save
     NEW-OLD atomic charge density approx. for the potential
     NEW k-points:
        k(    1) = (   0.0841139   0.1456896   0.0632974), wk =   0.0370370
        k(    2) = (   0.0841139   0.1456896   0.1898923), wk =   0.0370370
        k(    3) = (   0.0841139   0.1456896   0.3164872), wk =   0.0370370
        k(    4) = (   0.0841139   0.3399424   0.0632974), wk =   0.0370370
        k(    5) = (   0.0841139   0.3399424   0.1898923), wk =   0.0370370
        k(    6) = (   0.0841139   0.3399424   0.3164872), wk =   0.0370370
        k(    7) = (   0.0841139   0.5341952   0.0632974), wk =   0.0370370
        k(    8) = (   0.0841139   0.5341952   0.1898923), wk =   0.0370370
        k(    9) = (   0.0841139   0.5341952   0.3164872), wk =   0.0370370
        k(   10) = (   0.0841139  -0.4370688   0.0632974), wk =   0.0370370
        k(   11) = (   0.0841139  -0.4370688   0.1898923), wk =   0.0370370
        k(   12) = (   0.0841139  -0.4370688   0.3164872), wk =   0.0370370
        k(   13) = (   0.0841139  -0.2428160   0.0632974), wk =   0.0370370
        k(   14) = (   0.0841139  -0.2428160   0.1898923), wk =   0.0370370
        k(   15) = (   0.0841139  -0.2428160   0.3164872), wk =   0.0370370
        k(   16) = (   0.0841139  -0.0485632   0.0632974), wk =   0.0185185
        k(   17) = (   0.0841139  -0.0485632   0.1898923), wk =   0.0185185
        k(   18) = (   0.0841139  -0.0485632   0.3164872), wk =   0.0185185
        k(   19) = (   0.2523418   0.4370688   0.0632974), wk =   0.0370370
        k(   20) = (   0.2523418   0.4370688   0.1898923), wk =   0.0370370
        k(   21) = (   0.2523418   0.4370688   0.3164872), wk =   0.0370370
        k(   22) = (   0.2523418   0.6313216   0.0632974), wk =   0.0370370
        k(   23) = (   0.2523418   0.6313216   0.1898923), wk =   0.0370370
        k(   24) = (   0.2523418   0.6313216   0.3164872), wk =   0.0370370
        k(   25) = (   0.2523418  -0.3399424   0.0632974), wk =   0.0370370
        k(   26) = (   0.2523418  -0.3399424   0.1898923), wk =   0.0370370
        k(   27) = (   0.2523418  -0.3399424   0.3164872), wk =   0.0370370
        k(   28) = (   0.2523418  -0.1456896   0.0632974), wk =   0.0185185
        k(   29) = (   0.2523418  -0.1456896   0.1898923), wk =   0.0185185
        k(   30) = (   0.2523418  -0.1456896   0.3164872), wk =   0.0185185
        k(   31) = (   0.4205697   0.7284481   0.0632974), wk =   0.0370370
        k(   32) = (   0.4205697   0.7284481   0.1898923), wk =   0.0370370
        k(   33) = (   0.4205697   0.7284481   0.3164872), wk =   0.0370370
        k(   34) = (   0.4205697  -0.2428160   0.0632974), wk =   0.0185185
        k(   35) = (   0.4205697  -0.2428160   0.1898923), wk =   0.0185185
        k(   36) = (   0.4205697  -0.2428160   0.3164872), wk =   0.0185185
        k(   37) = (  -0.0841139   0.3399424  -0.0632974), wk =   0.0370370
        k(   38) = (  -0.0841139   0.3399424  -0.1898923), wk =   0.0370370
        k(   39) = (  -0.0841139   0.3399424  -0.3164872), wk =   0.0370370
        k(   40) = (  -0.0841139   0.5341952  -0.0632974), wk =   0.0370370
        k(   41) = (  -0.0841139   0.5341952  -0.1898923), wk =   0.0370370
        k(   42) = (  -0.0841139   0.5341952  -0.3164872), wk =   0.0370370
        k(   43) = (  -0.0841139  -0.4370688  -0.0632974), wk =   0.0370370
        k(   44) = (  -0.0841139  -0.4370688  -0.1898923), wk =   0.0370370
        k(   45) = (  -0.0841139  -0.4370688  -0.3164872), wk =   0.0370370
        k(   46) = (  -0.0841139  -0.2428160  -0.0632974), wk =   0.0370370
        k(   47) = (  -0.0841139  -0.2428160  -0.1898923), wk =   0.0370370
        k(   48) = (  -0.0841139  -0.2428160  -0.3164872), wk =   0.0370370
        k(   49) = (  -0.0841139  -0.0485632  -0.0632974), wk =   0.0185185
        k(   50) = (  -0.0841139  -0.0485632  -0.1898923), wk =   0.0185185
        k(   51) = (  -0.0841139  -0.0485632  -0.3164872), wk =   0.0185185
        k(   52) = (  -0.2523418   0.6313216  -0.0632974), wk =   0.0370370
        k(   53) = (  -0.2523418   0.6313216  -0.1898923), wk =   0.0370370
        k(   54) = (  -0.2523418   0.6313216  -0.3164872), wk =   0.0370370
        k(   55) = (  -0.2523418  -0.3399424  -0.0632974), wk =   0.0370370
        k(   56) = (  -0.2523418  -0.3399424  -0.1898923), wk =   0.0370370
        k(   57) = (  -0.2523418  -0.3399424  -0.3164872), wk =   0.0370370
        k(   58) = (  -0.2523418  -0.1456896  -0.0632974), wk =   0.0185185
        k(   59) = (  -0.2523418  -0.1456896  -0.1898923), wk =   0.0185185
        k(   60) = (  -0.2523418  -0.1456896  -0.3164872), wk =   0.0185185
        k(   61) = (  -0.4205697  -0.2428160  -0.0632974), wk =   0.0185185
        k(   62) = (  -0.4205697  -0.2428160  -0.1898923), wk =   0.0185185
        k(   63) = (  -0.4205697  -0.2428160  -0.3164872), wk =   0.0185185
     extrapolated charge   23.72076, renormalised to   24.00000

     total cpu time spent up to now is      694.5 secs

     per-process dynamical memory:    24.8 Mb

     Self-consistent Calculation

     iteration #  1     ecut=   100.00 Ry     beta=0.30
     Davidson diagonalization with overlap
     ethr =  1.00E-06,  avg # of iterations =  5.1

     total cpu time spent up to now is      731.3 secs

     total energy              =    -140.08749545 Ry
     Harris-Foulkes estimate   =    -140.64295495 Ry
     estimated scf accuracy    <       0.01861723 Ry

     iteration #  2     ecut=   100.00 Ry     beta=0.30
     Davidson diagonalization with overlap
     ethr =  7.76E-05,  avg # of iterations =  3.0

     total cpu time spent up to now is      755.1 secs

     total energy              =    -140.09835077 Ry
     Harris-Foulkes estimate   =    -140.09870387 Ry
     estimated scf accuracy    <       0.00235694 Ry

     iteration #  3     ecut=   100.00 Ry     beta=0.30
     Davidson diagonalization with overlap
     ethr =  9.82E-06,  avg # of iterations =  1.0

     total cpu time spent up to now is      770.5 secs

     total energy              =    -140.09759147 Ry
     Harris-Foulkes estimate   =    -140.09840408 Ry
     estimated scf accuracy    <       0.00132968 Ry

     iteration #  4     ecut=   100.00 Ry     beta=0.30
     Davidson diagonalization with overlap
     ethr =  5.54E-06,  avg # of iterations =  2.1

     total cpu time spent up to now is      790.5 secs

     total energy              =    -140.09814694 Ry
     Harris-Foulkes estimate   =    -140.09814913 Ry
     estimated scf accuracy    <       0.00046707 Ry

     iteration #  5     ecut=   100.00 Ry     beta=0.30
     Davidson diagonalization with overlap
     ethr =  1.95E-06,  avg # of iterations =  1.0

     total cpu time spent up to now is      805.8 secs

     total energy              =    -140.09799863 Ry
     Harris-Foulkes estimate   =    -140.09814889 Ry
     estimated scf accuracy    <       0.00047105 Ry

     iteration #  6     ecut=   100.00 Ry     beta=0.30
     Davidson diagonalization with overlap
     ethr =  1.95E-06,  avg # of iterations =  2.0

     total cpu time spent up to now is      824.5 secs

     total energy              =    -140.09810880 Ry
     Harris-Foulkes estimate   =    -140.09806422 Ry
     estimated scf accuracy    <       0.00012733 Ry

     iteration #  7     ecut=   100.00 Ry     beta=0.30
     Davidson diagonalization with overlap
     ethr =  5.31E-07,  avg # of iterations =  2.0

     total cpu time spent up to now is      841.8 secs

     total energy              =    -140.09815399 Ry
     Harris-Foulkes estimate   =    -140.09811734 Ry
     estimated scf accuracy    <       0.00029291 Ry

     iteration #  8     ecut=   100.00 Ry     beta=0.30
     Davidson diagonalization with overlap
     ethr =  5.31E-07,  avg # of iterations =  1.0

     total cpu time spent up to now is      857.3 secs

     total energy              =    -140.09801427 Ry
     Harris-Foulkes estimate   =    -140.09815773 Ry
     estimated scf accuracy    <       0.00042299 Ry

     iteration #  9     ecut=   100.00 Ry     beta=0.30
     Davidson diagonalization with overlap
     ethr =  5.31E-07,  avg # of iterations =  2.0

     total cpu time spent up to now is      877.2 secs

     total energy              =    -140.09802434 Ry
     Harris-Foulkes estimate   =    -140.09804254 Ry
     estimated scf accuracy    <       0.00007670 Ry

     iteration # 10     ecut=   100.00 Ry     beta=0.30
     Davidson diagonalization with overlap
     ethr =  3.20E-07,  avg # of iterations =  1.0

     total cpu time spent up to now is      892.6 secs

     total energy              =    -140.09801268 Ry
     Harris-Foulkes estimate   =    -140.09802663 Ry
     estimated scf accuracy    <       0.00003173 Ry

     iteration # 11     ecut=   100.00 Ry     beta=0.30
     Davidson diagonalization with overlap
     ethr =  1.32E-07,  avg # of iterations =  2.0

     total cpu time spent up to now is      911.4 secs

     total energy              =    -140.09801653 Ry
     Harris-Foulkes estimate   =    -140.09801746 Ry
     estimated scf accuracy    <       0.00000119 Ry

     iteration # 12     ecut=   100.00 Ry     beta=0.30
     Davidson diagonalization with overlap
     ethr =  4.95E-09,  avg # of iterations =  3.0

     total cpu time spent up to now is      936.4 secs

     total energy              =    -140.09801713 Ry
     Harris-Foulkes estimate   =    -140.09801811 Ry
     estimated scf accuracy    <       0.00000284 Ry

     iteration # 13     ecut=   100.00 Ry     beta=0.30
     Davidson diagonalization with overlap
     ethr =  4.95E-09,  avg # of iterations =  2.0

     total cpu time spent up to now is      956.3 secs

     total energy              =    -140.09801705 Ry
     Harris-Foulkes estimate   =    -140.09801733 Ry
     estimated scf accuracy    <       0.00000055 Ry

     iteration # 14     ecut=   100.00 Ry     beta=0.30
     Davidson diagonalization with overlap
     ethr =  2.29E-09,  avg # of iterations =  2.0

     total cpu time spent up to now is      976.0 secs

     End of self-consistent calculation

          k = 0.0841 0.1457 0.0633 (  6010 PWs)   bands (ev):

   -33.5441 -15.4111 -15.1151 -14.8949 -13.4321 -12.5733  -1.7963   0.0749
     2.5100   2.5803   3.1548   3.5329

          k = 0.0841 0.1457 0.1899 (  6001 PWs)   bands (ev):

   -33.5439 -15.4572 -15.0969 -14.8946 -13.3043 -12.6790  -1.6169  -0.2850
     2.5465   2.7106   3.1639   3.4660

          k = 0.0841 0.1457 0.3165 (  6026 PWs)   bands (ev):

   -33.5437 -15.4976 -15.0833 -14.8942 -13.0963 -12.8661  -1.2748  -0.7877
     2.6581   2.7695   3.1819   3.3629

          k = 0.0841 0.3399 0.0633 (  6015 PWs)   bands (ev):

   -33.5224 -15.5150 -15.2403 -14.9508 -13.1205 -12.6982  -1.3944  -0.2488
     2.2041   2.6055   2.7047   3.3924

          k = 0.0841 0.3399 0.1899 (  6011 PWs)   bands (ev):

   -33.5223 -15.4900 -15.2675 -14.9501 -13.1763 -12.6375  -1.3801  -0.4982
     2.4064   2.5862   2.8421   3.3808

          k = 0.0841 0.3399 0.3165 (  6013 PWs)   bands (ev):

   -33.5221 -15.4815 -15.2808 -14.9496 -13.1624 -12.6494  -1.2462  -0.8074
     2.5869   2.6961   2.8675   3.2777

          k = 0.0841 0.5342 0.0633 (  6018 PWs)   bands (ev):

   -33.5065 -15.7411 -15.0756 -15.0089 -13.1503 -12.6174  -0.9515  -0.5898
     1.6838   2.6721   2.7556   3.2261

          k = 0.0841 0.5342 0.1899 (  6017 PWs)   bands (ev):

   -33.5063 -15.7237 -15.0829 -15.0080 -13.2336 -12.5455  -1.1108  -0.6476
     1.9590   2.6596   2.7939   3.2340

          k = 0.0841 0.5342 0.3165 (  6023 PWs)   bands (ev):

   -33.5062 -15.7093 -15.0875 -15.0080 -13.2837 -12.5083  -1.2060  -0.7324
     2.2934   2.6465   2.7549   3.2072

          k = 0.0841-0.4371 0.0633 (  6013 PWs)   bands (ev):

   -33.5123 -15.6705 -15.1394 -14.9816 -13.0261 -12.7561  -1.0749  -0.4729
     1.8718   2.6194   2.7879   3.1979

          k = 0.0841-0.4371 0.1899 (  6017 PWs)   bands (ev):

   -33.5122 -15.6592 -15.1474 -14.9812 -13.0727 -12.7167  -1.0269  -0.7216
     2.1536   2.6159   2.9173   3.0529

          k = 0.0841-0.4371 0.3165 (  6018 PWs)   bands (ev):

   -33.5120 -15.6378 -15.1625 -14.9804 -13.1846 -12.6091  -1.0955  -0.8667
     2.4857   2.6256   2.8072   3.1298

          k = 0.0841-0.2428 0.0633 (  6004 PWs)   bands (ev):

   -33.5340 -15.3776 -15.2800 -14.9202 -13.2099 -12.6883  -1.5954  -0.0780
     2.4746   2.6464   2.7793   3.4088

          k = 0.0841-0.2428 0.1899 (  6000 PWs)   bands (ev):

   -33.5338 -15.4114 -15.2613 -14.9198 -13.1123 -12.7739  -1.4559  -0.4164
     2.5321   2.7997   2.8919   3.2819

          k = 0.0841-0.2428 0.3165 (  6012 PWs)   bands (ev):

   -33.5337 -15.4276 -15.2584 -14.9193 -13.0167 -12.8569  -1.1950  -0.8659
     2.6601   2.8034   3.0232   3.2189

          k = 0.0841-0.0486 0.0633 (  6015 PWs)   bands (ev):

   -33.5499 -15.4489 -14.9704 -14.8815 -13.5853 -12.5113  -1.9037   0.1627
     2.5099   2.5398   3.4187   3.6094

          k = 0.0841-0.0486 0.1899 (  6009 PWs)   bands (ev):

   -33.5496 -15.4986 -14.9615 -14.8812 -13.4296 -12.6350  -1.6947  -0.2082
     2.5534   2.6477   3.3466   3.5535

          k = 0.0841-0.0486 0.3165 (  6023 PWs)   bands (ev):

   -33.5494 -15.5442 -14.9543 -14.8810 -13.1893 -12.8461  -1.3075  -0.7393
     2.6523   2.7247   3.3011   3.4294

          k = 0.2523 0.4371 0.0633 (  6021 PWs)   bands (ev):

   -33.5065 -15.5974 -15.2480 -15.0483 -12.9109 -12.7878  -0.9988  -0.5395
     1.9323   2.4342   2.5720   3.3678

          k = 0.2523 0.4371 0.1899 (  6009 PWs)   bands (ev):

   -33.5064 -15.5818 -15.2527 -15.0512 -12.9954 -12.7166  -1.0300  -0.6895
     2.1546   2.5011   2.6920   3.2014

          k = 0.2523 0.4371 0.3165 (  6017 PWs)   bands (ev):

   -33.5062 -15.5655 -15.2584 -15.0538 -13.0506 -12.6751  -1.0442  -0.8398
     2.4144   2.6317   2.8081   2.9214

          k = 0.2523 0.6313 0.0633 (  6026 PWs)   bands (ev):

   -33.5022 -15.5883 -15.3043 -15.0506 -12.9065 -12.7587  -0.8400  -0.6733
     1.8620   2.4128   2.4994   3.3903

          k = 0.2523 0.6313 0.1899 (  6022 PWs)   bands (ev):

   -33.5021 -15.5771 -15.3009 -15.0551 -12.9510 -12.7334  -0.9021  -0.7666
     2.0765   2.4836   2.6149   3.1969

          k = 0.2523 0.6313 0.3165 (  5993 PWs)   bands (ev):

   -33.5019 -15.5644 -15.2988 -15.0594 -12.9956 -12.7079  -0.9825  -0.8331
     2.3906   2.5698   2.7222   2.8897

          k = 0.2523-0.3399 0.0633 (  6005 PWs)   bands (ev):

   -33.5139 -15.5767 -15.2192 -15.0106 -13.0038 -12.7516  -1.1981  -0.3899
     2.0499   2.5328   2.6355   3.3577

          k = 0.2523-0.3399 0.1899 (  6026 PWs)   bands (ev):

   -33.5138 -15.5555 -15.2370 -15.0102 -13.0901 -12.6695  -1.2138  -0.5901
     2.2655   2.5595   2.7819   3.2595

          k = 0.2523-0.3399 0.3165 (  6027 PWs)   bands (ev):

   -33.5136 -15.5392 -15.2505 -15.0101 -13.1212 -12.6441  -1.1570  -0.8236
     2.4767   2.6813   2.8566   3.0885

          k = 0.2523-0.1457 0.0633 (  6013 PWs)   bands (ev):

   -33.5298 -15.4258 -15.2765 -14.9195 -13.2080 -12.6618  -1.5444  -0.1365
     2.3821   2.5939   2.7627   3.4573

          k = 0.2523-0.1457 0.1899 (  6007 PWs)   bands (ev):

   -33.5296 -15.4050 -15.3056 -14.9191 -13.2150 -12.6439  -1.4836  -0.4278
     2.5758   2.5763   2.8508   3.4728

          k = 0.2523-0.1457 0.3165 (  6004 PWs)   bands (ev):

   -33.5294 -15.4233 -15.2988 -14.9187 -13.1506 -12.7003  -1.2776  -0.8034
     2.6562   2.7562   2.8722   3.3657

          k = 0.4206 0.7284 0.0633 (  6019 PWs)   bands (ev):

   -33.5038 -15.6862 -15.1516 -15.0559 -13.0364 -12.6735  -0.8512  -0.6688
     1.7470   2.5316   2.6322   3.3130

          k = 0.4206 0.7284 0.1899 (  6008 PWs)   bands (ev):

   -33.5036 -15.6723 -15.1503 -15.0607 -13.0982 -12.6278  -0.9832  -0.7176
     1.9973   2.5646   2.7218   3.1890

          k = 0.4206 0.7284 0.3165 (  6010 PWs)   bands (ev):

   -33.5035 -15.6582 -15.1488 -15.0655 -13.1506 -12.5917  -1.0957  -0.7709
     2.3274   2.5896   2.7574   3.0308

          k = 0.4206-0.2428 0.0633 (  6016 PWs)   bands (ev):

   -33.5096 -15.7302 -15.0977 -14.9570 -13.1858 -12.6090  -1.0733  -0.4961
     1.7280   2.7481   2.7621   3.2256

          k = 0.4206-0.2428 0.1899 (  6020 PWs)   bands (ev):

   -33.5095 -15.7101 -15.1083 -14.9565 -13.2803 -12.5215  -1.2114  -0.5969
     2.0029   2.6710   2.8330   3.3003

          k = 0.4206-0.2428 0.3165 (  6029 PWs)   bands (ev):

   -33.5093 -15.6967 -15.1149 -14.9560 -13.3182 -12.4933  -1.2583  -0.7298
     2.3251   2.6655   2.7756   3.2921

          k =-0.0841 0.3399-0.0633 (  6015 PWs)   bands (ev):

   -33.5224 -15.5301 -15.2279 -14.9510 -13.0090 -12.8124  -1.3384  -0.2684
     2.2059   2.6160   2.7255   3.2875

          k =-0.0841 0.3399-0.1899 (  6011 PWs)   bands (ev):

   -33.5223 -15.5243 -15.2388 -14.9505 -12.9625 -12.8568  -1.2387  -0.5729
     2.4276   2.6420   2.9023   3.1080

          k =-0.0841 0.3399-0.3165 (  6013 PWs)   bands (ev):

   -33.5221 -15.5013 -15.2637 -14.9498 -13.0833 -12.7314  -1.0937  -0.9288
     2.6394   2.7147   2.8860   3.1236

          k =-0.0841 0.5342-0.0633 (  6018 PWs)   bands (ev):

   -33.5065 -15.7442 -15.0731 -15.0096 -13.1186 -12.6503  -0.8700  -0.6531
     1.6824   2.6453   2.8016   3.1761

          k =-0.0841 0.5342-0.1899 (  6017 PWs)   bands (ev):

   -33.5063 -15.7303 -15.0778 -15.0095 -13.1839 -12.5976  -0.9841  -0.7406
     1.9689   2.6477   2.8262   3.1415

          k =-0.0841 0.5342-0.3165 (  6023 PWs)   bands (ev):

   -33.5062 -15.7127 -15.0848 -15.0086 -13.2627 -12.5305  -1.1558  -0.7668
     2.3212   2.6290   2.7524   3.1692

          k =-0.0841-0.4371-0.0633 (  6013 PWs)   bands (ev):

   -33.5123 -15.6613 -15.1459 -14.9812 -13.1250 -12.6543  -1.1653  -0.4231
     1.8710   2.6701   2.7043   3.3064

          k =-0.0841-0.4371-0.1899 (  6017 PWs)   bands (ev):

   -33.5122 -15.6398 -15.1613 -14.9803 -13.2176 -12.5658  -1.2482  -0.5752
     2.1195   2.6226   2.8265   3.3143

          k =-0.0841-0.4371-0.3165 (  6018 PWs)   bands (ev):

   -33.5120 -15.6274 -15.1701 -14.9799 -13.2420 -12.5488  -1.2358  -0.7615
     2.4045   2.6587   2.8133   3.2409

          k =-0.0841-0.2428-0.0633 (  6004 PWs)   bands (ev):

   -33.5340 -15.3494 -15.3067 -14.9201 -13.2396 -12.6575  -1.6154  -0.0743
     2.5305   2.5642   2.7767   3.4735

          k =-0.0841-0.2428-0.1899 (  6000 PWs)   bands (ev):

   -33.5338 -15.3775 -15.2923 -14.9197 -13.1907 -12.6934  -1.5063  -0.3959
     2.5539   2.7382   2.8438   3.4356

          k =-0.0841-0.2428-0.3165 (  6012 PWs)   bands (ev):

   -33.5337 -15.4148 -15.2697 -14.9192 -13.0875 -12.7850  -1.2532  -0.8217
     2.6481   2.8154   2.9492   3.3234

          k =-0.0841-0.0486-0.0633 (  6015 PWs)   bands (ev):

   -33.5499 -15.4496 -14.9700 -14.8816 -13.5826 -12.5140  -1.9013   0.1627
     2.5006   2.5487   3.4640   3.5578

          k =-0.0841-0.0486-0.1899 (  6009 PWs)   bands (ev):

   -33.5496 -15.4999 -14.9608 -14.8813 -13.4225 -12.6422  -1.6886  -0.2097
     2.5531   2.6464   3.4348   3.4553

          k =-0.0841-0.0486-0.3165 (  6023 PWs)   bands (ev):

   -33.5494 -15.5448 -14.9541 -14.8810 -13.1810 -12.8544  -1.3010  -0.7436
     2.6632   2.7120   3.3570   3.3705

          k =-0.2523 0.6313-0.0633 (  6026 PWs)   bands (ev):

   -33.5022 -15.5872 -15.3054 -15.0505 -12.9209 -12.7440  -0.8591  -0.6571
     1.8606   2.4427   2.4707   3.3956

          k =-0.2523 0.6313-0.1899 (  6022 PWs)   bands (ev):

   -33.5021 -15.5747 -15.3032 -15.0548 -12.9708 -12.7132  -0.9398  -0.7343
     2.0701   2.5160   2.5868   3.2088

          k =-0.2523 0.6313-0.3165 (  5993 PWs)   bands (ev):

   -33.5019 -15.5631 -15.3000 -15.0592 -13.0035 -12.6997  -1.0005  -0.8177
     2.3758   2.5974   2.7030   2.9008

          k =-0.2523-0.3399-0.0633 (  6005 PWs)   bands (ev):

   -33.5139 -15.5826 -15.2141 -15.0111 -12.8876 -12.8693  -1.1635  -0.4070
     2.0564   2.4963   2.6740   3.3165

          k =-0.2523-0.3399-0.1899 (  6026 PWs)   bands (ev):

   -33.5138 -15.5684 -15.2255 -15.0111 -12.9933 -12.7692  -1.1273  -0.6444
     2.3019   2.5199   2.8289   3.1536

          k =-0.2523-0.3399-0.3165 (  6027 PWs)   bands (ev):

   -33.5136 -15.5464 -15.2440 -15.0106 -13.0860 -12.6808  -1.0775  -0.8879
     2.5187   2.6528   2.9200   2.9817

          k =-0.2523-0.1457-0.0633 (  6013 PWs)   bands (ev):

   -33.5298 -15.4521 -15.2537 -14.9195 -13.1269 -12.7455  -1.4940  -0.1488
     2.3557   2.7033   2.7333   3.3238

          k =-0.2523-0.1457-0.1899 (  6007 PWs)   bands (ev):

   -33.5296 -15.4636 -15.2538 -14.9191 -13.0060 -12.8583  -1.3566  -0.4850
     2.4939   2.8322   2.8528   3.1478

          k =-0.2523-0.1457-0.3165 (  6004 PWs)   bands (ev):

   -33.5294 -15.4530 -15.2724 -14.9187 -13.0401 -12.8136  -1.1311  -0.9174
     2.6735   2.8078   2.9089   3.1902

          k =-0.4206-0.2428-0.0633 (  6016 PWs)   bands (ev):

   -33.5096 -15.7370 -15.0941 -14.9570 -13.1177 -12.6796  -0.9620  -0.5688
     1.7247   2.7073   2.8617   3.1008

          k =-0.4206-0.2428-0.1899 (  6020 PWs)   bands (ev):

   -33.5095 -15.7243 -15.1005 -14.9566 -13.1741 -12.6327  -0.9714  -0.7659
     2.0224   2.7025   2.8575   3.0913

          k =-0.4206-0.2428-0.3165 (  6029 PWs)   bands (ev):

   -33.5093 -15.7042 -15.1107 -14.9561 -13.2739 -12.5401  -1.1508  -0.8042
     2.3801   2.6672   2.7374   3.2089

!    total energy              =    -140.09801715 Ry
     Harris-Foulkes estimate   =    -140.09801715 Ry
     estimated scf accuracy    <          9.3E-10 Ry

     The total energy is the sum of the following terms:

     one-electron contribution =     -60.67276429 Ry
     hartree contribution      =      40.16814178 Ry
     xc contribution           =     -26.00061543 Ry
     ewald contribution        =     -93.59277921 Ry

     convergence has been achieved in  14 iterations

     Forces acting on atoms (Ry/au):

     atom    1 type  3   force =     0.00000000   -0.00000000    0.00000000
     atom    2 type  2   force =     0.00000000   -0.00000000    0.02079407
     atom    3 type  2   force =    -0.00000000    0.00000000   -0.02079407
     atom    4 type  1   force =    -0.00000000    0.00000000    0.00623890
     atom    5 type  1   force =    -0.00000000   -0.00000000   -0.00623890

     Total force =     0.030702     Total SCF correction =     0.000117


     entering subroutine stress ...

          total   stress  (Ry/bohr**3)                   (kbar)     P=   83.05
   0.00057938  -0.00000000   0.00000000         85.23     -0.00      0.00
  -0.00000000   0.00057938  -0.00000000         -0.00     85.23     -0.00
  -0.00000000   0.00000000   0.00053484         -0.00      0.00     78.68


     number of scf cycles    =   3
     number of bfgs steps    =   2

     enthalpy old            =    -139.8566872789 Ry
     enthalpy new            =    -139.8602479550 Ry

     CASE: enthalpy_new < enthalpy_old

     new trust radius        =       0.0272203947 bohr
     new conv_thr            =       0.0000002079 Ry

     new unit-cell volume =    344.54683 a.u.^3 (    51.05657 Ang^3 )

CELL_PARAMETERS (alat=  6.78640000)
   0.985616367   0.000000000   0.000000000
  -0.492808183   0.853568812   0.000000000
  -0.000000000   0.000000000   1.310338345

ATOMIC_POSITIONS (crystal)
Ca       0.000000000  -0.000000000   0.000000000
O        0.333333333   0.666666667   0.235176318
O        0.666666667   0.333333333   0.764823682
H        0.333333333   0.666666667   0.441495278
H        0.666666667   0.333333333   0.558504722



     Writing output data file CaOH2_ambient.save
     NEW-OLD atomic charge density approx. for the potential
     NEW k-points:
        k(    1) = (   0.0845495   0.1464440   0.0635968), wk =   0.0370370
        k(    2) = (   0.0845495   0.1464440   0.1907904), wk =   0.0370370
        k(    3) = (   0.0845495   0.1464440   0.3179840), wk =   0.0370370
        k(    4) = (   0.0845495   0.3417026   0.0635968), wk =   0.0370370
        k(    5) = (   0.0845495   0.3417026   0.1907904), wk =   0.0370370
        k(    6) = (   0.0845495   0.3417026   0.3179840), wk =   0.0370370
        k(    7) = (   0.0845495   0.5369612   0.0635968), wk =   0.0370370
        k(    8) = (   0.0845495   0.5369612   0.1907904), wk =   0.0370370
        k(    9) = (   0.0845495   0.5369612   0.3179840), wk =   0.0370370
        k(   10) = (   0.0845495  -0.4393319   0.0635968), wk =   0.0370370
        k(   11) = (   0.0845495  -0.4393319   0.1907904), wk =   0.0370370
        k(   12) = (   0.0845495  -0.4393319   0.3179840), wk =   0.0370370
        k(   13) = (   0.0845495  -0.2440733   0.0635968), wk =   0.0370370
        k(   14) = (   0.0845495  -0.2440733   0.1907904), wk =   0.0370370
        k(   15) = (   0.0845495  -0.2440733   0.3179840), wk =   0.0370370
        k(   16) = (   0.0845495  -0.0488147   0.0635968), wk =   0.0185185
        k(   17) = (   0.0845495  -0.0488147   0.1907904), wk =   0.0185185
        k(   18) = (   0.0845495  -0.0488147   0.3179840), wk =   0.0185185
        k(   19) = (   0.2536484   0.4393319   0.0635968), wk =   0.0370370
        k(   20) = (   0.2536484   0.4393319   0.1907904), wk =   0.0370370
        k(   21) = (   0.2536484   0.4393319   0.3179840), wk =   0.0370370
        k(   22) = (   0.2536484   0.6345905   0.0635968), wk =   0.0370370
        k(   23) = (   0.2536484   0.6345905   0.1907904), wk =   0.0370370
        k(   24) = (   0.2536484   0.6345905   0.3179840), wk =   0.0370370
        k(   25) = (   0.2536484  -0.3417026   0.0635968), wk =   0.0370370
        k(   26) = (   0.2536484  -0.3417026   0.1907904), wk =   0.0370370
        k(   27) = (   0.2536484  -0.3417026   0.3179840), wk =   0.0370370
        k(   28) = (   0.2536484  -0.1464440   0.0635968), wk =   0.0185185
        k(   29) = (   0.2536484  -0.1464440   0.1907904), wk =   0.0185185
        k(   30) = (   0.2536484  -0.1464440   0.3179840), wk =   0.0185185
        k(   31) = (   0.4227473   0.7322198   0.0635968), wk =   0.0370370
        k(   32) = (   0.4227473   0.7322198   0.1907904), wk =   0.0370370
        k(   33) = (   0.4227473   0.7322198   0.3179840), wk =   0.0370370
        k(   34) = (   0.4227473  -0.2440733   0.0635968), wk =   0.0185185
        k(   35) = (   0.4227473  -0.2440733   0.1907904), wk =   0.0185185
        k(   36) = (   0.4227473  -0.2440733   0.3179840), wk =   0.0185185
        k(   37) = (  -0.0845495   0.3417026  -0.0635968), wk =   0.0370370
        k(   38) = (  -0.0845495   0.3417026  -0.1907904), wk =   0.0370370
        k(   39) = (  -0.0845495   0.3417026  -0.3179840), wk =   0.0370370
        k(   40) = (  -0.0845495   0.5369612  -0.0635968), wk =   0.0370370
        k(   41) = (  -0.0845495   0.5369612  -0.1907904), wk =   0.0370370
        k(   42) = (  -0.0845495   0.5369612  -0.3179840), wk =   0.0370370
        k(   43) = (  -0.0845495  -0.4393319  -0.0635968), wk =   0.0370370
        k(   44) = (  -0.0845495  -0.4393319  -0.1907904), wk =   0.0370370
        k(   45) = (  -0.0845495  -0.4393319  -0.3179840), wk =   0.0370370
        k(   46) = (  -0.0845495  -0.2440733  -0.0635968), wk =   0.0370370
        k(   47) = (  -0.0845495  -0.2440733  -0.1907904), wk =   0.0370370
        k(   48) = (  -0.0845495  -0.2440733  -0.3179840), wk =   0.0370370
        k(   49) = (  -0.0845495  -0.0488147  -0.0635968), wk =   0.0185185
        k(   50) = (  -0.0845495  -0.0488147  -0.1907904), wk =   0.0185185
        k(   51) = (  -0.0845495  -0.0488147  -0.3179840), wk =   0.0185185
        k(   52) = (  -0.2536484   0.6345905  -0.0635968), wk =   0.0370370
        k(   53) = (  -0.2536484   0.6345905  -0.1907904), wk =   0.0370370
        k(   54) = (  -0.2536484   0.6345905  -0.3179840), wk =   0.0370370
        k(   55) = (  -0.2536484  -0.3417026  -0.0635968), wk =   0.0370370
        k(   56) = (  -0.2536484  -0.3417026  -0.1907904), wk =   0.0370370
        k(   57) = (  -0.2536484  -0.3417026  -0.3179840), wk =   0.0370370
        k(   58) = (  -0.2536484  -0.1464440  -0.0635968), wk =   0.0185185
        k(   59) = (  -0.2536484  -0.1464440  -0.1907904), wk =   0.0185185
        k(   60) = (  -0.2536484  -0.1464440  -0.3179840), wk =   0.0185185
        k(   61) = (  -0.4227473  -0.2440733  -0.0635968), wk =   0.0185185
        k(   62) = (  -0.4227473  -0.2440733  -0.1907904), wk =   0.0185185
        k(   63) = (  -0.4227473  -0.2440733  -0.3179840), wk =   0.0185185
     extrapolated charge   23.66646, renormalised to   24.00000

     total cpu time spent up to now is     1102.1 secs

     per-process dynamical memory:    24.8 Mb

     Self-consistent Calculation

     iteration #  1     ecut=   100.00 Ry     beta=0.30
     Davidson diagonalization with overlap
     ethr =  1.00E-06,  avg # of iterations =  5.0

     total cpu time spent up to now is     1138.0 secs

     total energy              =    -140.08214068 Ry
     Harris-Foulkes estimate   =    -140.73185362 Ry
     estimated scf accuracy    <       0.02038953 Ry

     iteration #  2     ecut=   100.00 Ry     beta=0.30
     Davidson diagonalization with overlap
     ethr =  8.50E-05,  avg # of iterations =  3.0

     total cpu time spent up to now is     1162.1 secs

     total energy              =    -140.09645172 Ry
     Harris-Foulkes estimate   =    -140.09699878 Ry
     estimated scf accuracy    <       0.00372914 Ry

     iteration #  3     ecut=   100.00 Ry     beta=0.30
     Davidson diagonalization with overlap
     ethr =  1.55E-05,  avg # of iterations =  1.0

     total cpu time spent up to now is     1177.4 secs

     total energy              =    -140.09531511 Ry
     Harris-Foulkes estimate   =    -140.09652549 Ry
     estimated scf accuracy    <       0.00208485 Ry

     iteration #  4     ecut=   100.00 Ry     beta=0.30
     Davidson diagonalization with overlap
     ethr =  8.69E-06,  avg # of iterations =  2.0

     total cpu time spent up to now is     1197.3 secs

     total energy              =    -140.09609525 Ry
     Harris-Foulkes estimate   =    -140.09612208 Ry
     estimated scf accuracy    <       0.00050729 Ry

     iteration #  5     ecut=   100.00 Ry     beta=0.30
     Davidson diagonalization with overlap
     ethr =  2.11E-06,  avg # of iterations =  1.0

     total cpu time spent up to now is     1212.6 secs

     total energy              =    -140.09594029 Ry
     Harris-Foulkes estimate   =    -140.09609843 Ry
     estimated scf accuracy    <       0.00043675 Ry

     iteration #  6     ecut=   100.00 Ry     beta=0.30
     Davidson diagonalization with overlap
     ethr =  1.82E-06,  avg # of iterations =  2.0

     total cpu time spent up to now is     1231.4 secs

     total energy              =    -140.09596824 Ry
     Harris-Foulkes estimate   =    -140.09598630 Ry
     estimated scf accuracy    <       0.00003738 Ry

     iteration #  7     ecut=   100.00 Ry     beta=0.30
     Davidson diagonalization with overlap
     ethr =  1.56E-07,  avg # of iterations =  2.0

     total cpu time spent up to now is     1251.3 secs

     total energy              =    -140.09597833 Ry
[...]
        k(   60) = (  -0.2545916  -0.1469885  -0.3345176), wk =   0.0185185
        k(   61) = (  -0.4243193  -0.2449809  -0.0669035), wk =   0.0185185
        k(   62) = (  -0.4243193  -0.2449809  -0.2007106), wk =   0.0185185
        k(   63) = (  -0.4243193  -0.2449809  -0.3345176), wk =   0.0185185

     Dense  grid:    31411 G-vectors     FFT dimensions: (  40,  40,  50)

     Largest allocated arrays     est. size (Mb)     dimensions
        Kohn-Sham Wavefunctions         1.01 Mb     (   5512,   12)
        NL pseudopotentials             0.76 Mb     (   5512,    9)
        Each V/rho on FFT grid          1.22 Mb     (  80000)
        Each G-vector array             0.24 Mb     (  31411)
        G-vector shells                 0.01 Mb     (   1482)
     Largest temporary arrays     est. size (Mb)     dimensions
        Auxiliary wavefunctions         4.04 Mb     (   5512,   48)
        Each subspace H/S matrix        0.04 Mb     (  48,  48)
        Each <psi_i|beta_j> matrix      0.00 Mb     (      9,   12)
        Arrays for rho mixing          19.53 Mb     (  80000,  16)

     Initial potential from superposition of free atoms

     starting charge   21.99998, renormalised to   24.00000
     Starting wfc are   14 randomized atomic wfcs

     Writing output data file CaOH2_ambient.save

     total cpu time spent up to now is     4415.9 secs

     per-process dynamical memory:    23.3 Mb

     Self-consistent Calculation

     iteration #  1     ecut=   100.00 Ry     beta=0.30
     Davidson diagonalization with overlap
     ethr =  1.00E-06,  avg # of iterations =  6.1

     total cpu time spent up to now is     4460.5 secs

     total energy              =    -140.21483342 Ry
     Harris-Foulkes estimate   =    -140.29583022 Ry
     estimated scf accuracy    <       0.43971679 Ry

     iteration #  2     ecut=   100.00 Ry     beta=0.30
     Davidson diagonalization with overlap
     ethr =  1.83E-03,  avg # of iterations =  1.0

     total cpu time spent up to now is     4475.0 secs

     total energy              =    -140.04958603 Ry
     Harris-Foulkes estimate   =    -140.21828092 Ry
     estimated scf accuracy    <       0.27449640 Ry

     iteration #  3     ecut=   100.00 Ry     beta=0.30
     Davidson diagonalization with overlap
     ethr =  1.14E-03,  avg # of iterations =  2.0

     total cpu time spent up to now is     4492.5 secs

     total energy              =    -140.08748863 Ry
     Harris-Foulkes estimate   =    -140.09236424 Ry
     estimated scf accuracy    <       0.01330401 Ry

     iteration #  4     ecut=   100.00 Ry     beta=0.30
     Davidson diagonalization with overlap
     ethr =  5.54E-05,  avg # of iterations =  2.0

     total cpu time spent up to now is     4510.7 secs

     total energy              =    -140.08959770 Ry
     Harris-Foulkes estimate   =    -140.08998738 Ry
     estimated scf accuracy    <       0.00223808 Ry

     iteration #  5     ecut=   100.00 Ry     beta=0.30
     Davidson diagonalization with overlap
     ethr =  9.33E-06,  avg # of iterations =  2.0

     total cpu time spent up to now is     4528.4 secs

     total energy              =    -140.08928826 Ry
     Harris-Foulkes estimate   =    -140.08993248 Ry
     estimated scf accuracy    <       0.00164835 Ry

     iteration #  6     ecut=   100.00 Ry     beta=0.30
     Davidson diagonalization with overlap
     ethr =  6.87E-06,  avg # of iterations =  2.0

     total cpu time spent up to now is     4545.9 secs

     total energy              =    -140.08942487 Ry
     Harris-Foulkes estimate   =    -140.08945864 Ry
     estimated scf accuracy    <       0.00009954 Ry

     iteration #  7     ecut=   100.00 Ry     beta=0.30
     Davidson diagonalization with overlap
     ethr =  4.15E-07,  avg # of iterations =  2.0

     total cpu time spent up to now is     4564.7 secs

     total energy              =    -140.08944493 Ry
     Harris-Foulkes estimate   =    -140.08944450 Ry
     estimated scf accuracy    <       0.00004266 Ry

     iteration #  8     ecut=   100.00 Ry     beta=0.30
     Davidson diagonalization with overlap
     ethr =  1.78E-07,  avg # of iterations =  2.0

     total cpu time spent up to now is     4582.1 secs

     total energy              =    -140.08944911 Ry
     Harris-Foulkes estimate   =    -140.08944924 Ry
     estimated scf accuracy    <       0.00000088 Ry

     iteration #  9     ecut=   100.00 Ry     beta=0.30
     Davidson diagonalization with overlap
     ethr =  3.68E-09,  avg # of iterations =  3.0

     total cpu time spent up to now is     4604.3 secs

     total energy              =    -140.08944948 Ry
     Harris-Foulkes estimate   =    -140.08944947 Ry
     estimated scf accuracy    <       0.00000070 Ry

     iteration # 10     ecut=   100.00 Ry     beta=0.30
     Davidson diagonalization with overlap
     ethr =  2.91E-09,  avg # of iterations =  2.0

     total cpu time spent up to now is     4623.6 secs

     total energy              =    -140.08944957 Ry
     Harris-Foulkes estimate   =    -140.08944961 Ry
     estimated scf accuracy    <       0.00000008 Ry

     iteration # 11     ecut=   100.00 Ry     beta=0.30
     Davidson diagonalization with overlap
     ethr =  3.41E-10,  avg # of iterations =  2.0

     total cpu time spent up to now is     4644.5 secs

     End of self-consistent calculation

          k = 0.0849 0.1470 0.0669 (  5500 PWs)   bands (ev):

   -32.9193 -14.7395 -14.4834 -14.2672 -12.8423 -11.6759  -0.9954   0.8207
     3.1890   3.2901   3.9354   4.3459

          k = 0.0849 0.1470 0.2007 (  5507 PWs)   bands (ev):

   -32.9188 -14.8236 -14.4526 -14.2665 -12.6681 -11.8022  -0.8476   0.4371
     3.2407   3.5071   3.8888   4.2562

          k = 0.0849 0.1470 0.3345 (  5506 PWs)   bands (ev):

   -32.9183 -14.8917 -14.4337 -14.2658 -12.4172 -12.0091  -0.5460  -0.0738
     3.4129   3.6325   3.8518   4.0959

          k = 0.0849 0.3430 0.0669 (  5493 PWs)   bands (ev):

   -32.8959 -14.8727 -14.5806 -14.3240 -12.4783 -11.8570  -0.6240   0.4488
     2.8680   3.2417   3.5028   4.2460

          k = 0.0849 0.3430 0.2007 (  5498 PWs)   bands (ev):

   -32.8955 -14.8307 -14.6289 -14.3227 -12.5342 -11.7901  -0.6604   0.1536
     3.1243   3.2083   3.6905   4.2384

          k = 0.0849 0.3430 0.3345 (  5479 PWs)   bands (ev):

   -32.8951 -14.8132 -14.6563 -14.3217 -12.5110 -11.8074  -0.5738  -0.1642
     3.2819   3.3562   3.7556   4.1189

          k = 0.0849 0.5390 0.0669 (  5489 PWs)   bands (ev):

   -32.8787 -15.0977 -14.4266 -14.3792 -12.3667 -11.9139  -0.2264   0.0814
     2.3410   3.3428   3.5047   4.1016

          k = 0.0849 0.5390 0.2007 (  5481 PWs)   bands (ev):

   -32.8783 -15.0668 -14.4401 -14.3778 -12.5090 -11.7929  -0.4358  -0.0141
     2.6921   3.2650   3.6014   4.1240

          k = 0.0849 0.5390 0.3345 (  5482 PWs)   bands (ev):

   -32.8780 -15.0402 -14.4489 -14.3777 -12.5886 -11.7378  -0.5762  -0.1117
     3.1165   3.2308   3.5297   4.1082

          k = 0.0849-0.4410 0.0669 (  5490 PWs)   bands (ev):

   -32.8850 -15.0320 -14.4817 -14.3544 -12.2142 -12.0847  -0.3242   0.2345
     2.5052   3.3693   3.4607   4.0464

          k = 0.0849-0.4410 0.2007 (  5483 PWs)   bands (ev):

   -32.8846 -15.0119 -14.4962 -14.3537 -12.3122 -11.9992  -0.3229  -0.0426
     2.8524   3.3683   3.5415   3.9440

          k = 0.0849-0.4410 0.3345 (  5480 PWs)   bands (ev):

   -32.8843 -14.9750 -14.5231 -14.3520 -12.4873 -11.8324  -0.4506  -0.2176
     3.2792   3.3401   3.4669   4.0160

          k = 0.0849-0.2450 0.0669 (  5499 PWs)   bands (ev):

   -32.9085 -14.7338 -14.6213 -14.2932 -12.6076 -11.8073  -0.8011   0.6602
     3.1171   3.3334   3.5756   4.2170

          k = 0.0849-0.2450 0.2007 (  5497 PWs)   bands (ev):

   -32.9080 -14.7850 -14.5998 -14.2923 -12.4915 -11.8963  -0.6999   0.2901
     3.1975   3.5689   3.6828   4.0397

          k = 0.0849-0.2450 0.3345 (  5503 PWs)   bands (ev):

   -32.9076 -14.8130 -14.5979 -14.2913 -12.3947 -11.9657  -0.4889  -0.1801
     3.3735   3.5617   3.8589   3.9503

          k = 0.0849-0.0490 0.0669 (  5488 PWs)   bands (ev):

   -32.9255 -14.7746 -14.3414 -14.2534 -12.9998 -11.6069  -1.1001   0.9115
     3.2087   3.2548   4.2023   4.4282

          k = 0.0849-0.0490 0.2007 (  5508 PWs)   bands (ev):

   -32.9250 -14.8651 -14.3264 -14.2527 -12.7781 -11.7623  -0.9165   0.5251
     3.2776   3.4345   4.0622   4.3389

          k = 0.0849-0.0490 0.3345 (  5512 PWs)   bands (ev):

   -32.9245 -14.9431 -14.3164 -14.2521 -12.4438 -12.0385  -0.5633  -0.0072
     3.4521   3.6040   3.9286   4.1235

          k = 0.2546 0.4410 0.0669 (  5484 PWs)   bands (ev):

   -32.8787 -14.9581 -14.6005 -14.4034 -12.1791 -12.0406  -0.2786   0.1354
     2.5193   3.1547   3.3346   4.2462

          k = 0.2546 0.4410 0.2007 (  5480 PWs)   bands (ev):

   -32.8784 -14.9311 -14.6059 -14.4105 -12.2953 -11.9496  -0.3470  -0.0450
     2.7916   3.2228   3.4846   4.0549

          k = 0.2546 0.4410 0.3345 (  5479 PWs)   bands (ev):

   -32.8780 -14.9018 -14.6142 -14.4166 -12.3708 -11.8999  -0.3995  -0.2137
     3.1471   3.2829   3.6316   3.7633

          k = 0.2546 0.6370 0.0669 (  5501 PWs)   bands (ev):

   -32.8741 -14.9471 -14.6639 -14.3989 -12.1338 -12.0531  -0.1473  -0.0019
     2.4213   3.1663   3.2655   4.2734

          k = 0.2546 0.6370 0.2007 (  5490 PWs)   bands (ev):

   -32.8738 -14.9266 -14.6564 -14.4078 -12.2212 -12.0021  -0.2423  -0.1161
     2.6818   3.2569   3.3889   4.0469

          k = 0.2546 0.6370 0.3345 (  5484 PWs)   bands (ev):

   -32.8734 -14.9034 -14.6509 -14.4165 -12.2931 -11.9666  -0.3509  -0.2030
     3.0770   3.3457   3.4566   3.7296

          k = 0.2546-0.3430 0.0669 (  5487 PWs)   bands (ev):

   -32.8867 -14.9373 -14.5610 -14.3786 -12.3255 -11.9490  -0.4485   0.2946
     2.6855   3.1921   3.4139   4.2278

          k = 0.2546-0.3430 0.2007 (  5490 PWs)   bands (ev):

   -32.8863 -14.9016 -14.5905 -14.3786 -12.4237 -11.8580  -0.5100   0.0534
     2.9577   3.2045   3.6130   4.1149

          k = 0.2546-0.3430 0.3345 (  5472 PWs)   bands (ev):

   -32.8859 -14.8717 -14.6156 -14.3788 -12.4605 -11.8309  -0.4988  -0.1938
     3.2465   3.2652   3.7368   3.9253

          k = 0.2546-0.1470 0.0669 (  5511 PWs)   bands (ev):

   -32.9039 -14.7772 -14.6219 -14.2931 -12.5934 -11.7920  -0.7618   0.5762
     3.0457   3.2469   3.5660   4.2993

          k = 0.2546-0.1470 0.2007 (  5512 PWs)   bands (ev):

   -32.9035 -14.7363 -14.6808 -14.2922 -12.5880 -11.7736  -0.7495   0.2413
     3.2158   3.2842   3.6976   4.3274

          k = 0.2546-0.1470 0.3345 (  5484 PWs)   bands (ev):

   -32.9030 -14.7767 -14.6627 -14.2915 -12.5034 -11.8398  -0.5887  -0.1414
     3.3150   3.4610   3.7653   4.1867

          k = 0.4243 0.7349 0.0669 (  5499 PWs)   bands (ev):

   -32.8758 -15.0437 -14.5173 -14.4043 -12.2511 -11.9772  -0.1445   0.0047
     2.3634   3.2574   3.3623   4.1942

          k = 0.4243 0.7349 0.2007 (  5479 PWs)   bands (ev):

   -32.8754 -15.0186 -14.5139 -14.4138 -12.3644 -11.8942  -0.3182  -0.0698
     2.6750   3.2633   3.4799   4.0656

          k = 0.4243 0.7349 0.3345 (  5477 PWs)   bands (ev):

   -32.8751 -14.9929 -14.5101 -14.4234 -12.4500 -11.8398  -0.4663  -0.1435
     3.0953   3.2841   3.4607   3.9200

          k = 0.4243-0.2450 0.0669 (  5482 PWs)   bands (ev):

   -32.8821 -15.0861 -14.4456 -14.3325 -12.4241 -11.8818  -0.3348   0.1723
     2.4011   3.3524   3.5821   4.0860

          k = 0.4243-0.2450 0.2007 (  5488 PWs)   bands (ev):

   -32.8817 -15.0508 -14.4655 -14.3314 -12.5737 -11.7450  -0.5279   0.0271
     2.7529   3.2495   3.6755   4.1873

          k = 0.4243-0.2450 0.3345 (  5481 PWs)   bands (ev):

   -32.8814 -15.0259 -14.4789 -14.3304 -12.6313 -11.7054  -0.6233  -0.1117
     3.1467   3.2248   3.5942   4.1926

          k =-0.0849 0.3430-0.0669 (  5493 PWs)   bands (ev):

   -32.8959 -14.8953 -14.5624 -14.3244 -12.3678 -11.9719  -0.5598   0.4556
     2.8364   3.3445   3.4498   4.1072

          k =-0.0849 0.3430-0.2007 (  5498 PWs)   bands (ev):

   -32.8955 -14.8860 -14.5820 -14.3234 -12.3222 -12.0114  -0.5022   0.1172
     3.0898   3.4149   3.6413   3.8971

          k =-0.0849 0.3430-0.3345 (  5479 PWs)   bands (ev):

   -32.8951 -14.8495 -14.6241 -14.3220 -12.4201 -11.9031  -0.4116  -0.2719
     3.3457   3.4240   3.6998   3.9416

          k =-0.0849 0.5390-0.0669 (  5489 PWs)   bands (ev):

   -32.8787 -15.1027 -14.4219 -14.3812 -12.2988 -11.9839  -0.1470   0.0383
     2.3255   3.3785   3.4805   4.0500

          k =-0.0849 0.5390-0.2007 (  5481 PWs)   bands (ev):

   -32.8783 -15.0775 -14.4307 -14.3810 -12.4268 -11.8793  -0.3126  -0.0753
     2.6872   3.3313   3.5268   4.0365

          k =-0.0849 0.5390-0.3345 (  5482 PWs)   bands (ev):

   -32.8780 -15.0460 -14.4440 -14.3792 -12.5568 -11.7716  -0.5275  -0.1330
     3.1528   3.2789   3.4327   4.0738

          k =-0.0849-0.4410-0.0669 (  5490 PWs)   bands (ev):

   -32.8850 -15.0178 -14.4918 -14.3534 -12.4024 -11.8917  -0.4199   0.2494
     2.5359   3.2911   3.5097   4.1726

          k =-0.0849-0.4410-0.2007 (  5483 PWs)   bands (ev):

   -32.8846 -14.9804 -14.5196 -14.3519 -12.5340 -11.7676  -0.5553   0.0523
     2.8530   3.2226   3.6689   4.1932

          k =-0.0849-0.4410-0.3345 (  5480 PWs)   bands (ev):

   -32.8843 -14.9572 -14.5367 -14.3511 -12.5679 -11.7468  -0.5897  -0.1395
     3.1959   3.2379   3.6557   4.1210

          k =-0.0849-0.2450-0.0669 (  5499 PWs)   bands (ev):

   -32.9085 -14.6829 -14.6698 -14.2931 -12.6396 -11.7735  -0.8253   0.6534
     3.2051   3.2105   3.5768   4.3096

          k =-0.0849-0.2450-0.2007 (  5497 PWs)   bands (ev):

   -32.9080 -14.7392 -14.6411 -14.2921 -12.5698 -11.8142  -0.7586   0.2944
     3.2146   3.4404   3.6785   4.2610

          k =-0.0849-0.2450-0.3345 (  5503 PWs)   bands (ev):

   -32.9076 -14.7967 -14.6120 -14.2912 -12.4490 -11.9094  -0.5510  -0.1427
     3.3462   3.5426   3.7929   4.1105

          k =-0.0849-0.0490-0.0669 (  5488 PWs)   bands (ev):

   -32.9255 -14.7760 -14.3406 -14.2534 -12.9964 -11.6103  -1.0970   0.9129
     3.1955   3.2684   4.2716   4.3476

          k =-0.0849-0.0490-0.2007 (  5508 PWs)   bands (ev):

   -32.9250 -14.8673 -14.3252 -14.2528 -12.7692 -11.7715  -0.9092   0.5260
     3.2758   3.4382   4.1368   4.2440

          k =-0.0849-0.0490-0.3345 (  5512 PWs)   bands (ev):

   -32.9245 -14.9440 -14.3159 -14.2522 -12.4328 -12.0497  -0.5564  -0.0102
     3.4622   3.5936   3.9615   4.0831

          k =-0.2546 0.6370-0.0669 (  5501 PWs)   bands (ev):

   -32.8741 -14.9453 -14.6655 -14.3987 -12.1679 -12.0187  -0.1653   0.0106
     2.4236   3.1687   3.2628   4.2803

          k =-0.2546 0.6370-0.2007 (  5490 PWs)   bands (ev):

   -32.8738 -14.9227 -14.6600 -14.4075 -12.2522 -11.9703  -0.2767  -0.0918
     2.6821   3.2452   3.4037   4.0593

          k =-0.2546 0.6370-0.3345 (  5484 PWs)   bands (ev):

   -32.8734 -14.9013 -14.6530 -14.4163 -12.3046 -11.9548  -0.3664  -0.1920
     3.0729   3.3098   3.5139   3.7197

          k =-0.2546-0.3430-0.0669 (  5487 PWs)   bands (ev):

   -32.8867 -14.9462 -14.5532 -14.3795 -12.2353 -12.0414  -0.4109   0.2914
     2.6728   3.2086   3.4067   4.1758

          k =-0.2546-0.3430-0.2007 (  5490 PWs)   bands (ev):

   -32.8863 -14.9224 -14.5719 -14.3804 -12.3101 -11.9762  -0.4170   0.0195
     2.9606   3.2545   3.5754   3.9991

          k =-0.2546-0.3430-0.3345 (  5472 PWs)   bands (ev):

   -32.8859 -14.8845 -14.6038 -14.3797 -12.4171 -11.8767  -0.4170  -0.2492
     3.2759   3.3045   3.6721   3.8745

          k =-0.2546-0.1470-0.0669 (  5511 PWs)   bands (ev):

   -32.9039 -14.8159 -14.5886 -14.2932 -12.5077 -11.8820  -0.7020   0.5896
     2.9876   3.3990   3.5298   4.1088

          k =-0.2546-0.1470-0.2007 (  5512 PWs)   bands (ev):

   -32.9035 -14.8344 -14.5932 -14.2924 -12.3894 -11.9813  -0.6036   0.2225
     3.1569   3.6382   3.6619   3.8286

          k =-0.2546-0.1470-0.3345 (  5484 PWs)   bands (ev):

   -32.9030 -14.8229 -14.6215 -14.2915 -12.3942 -11.9538  -0.4323  -0.2407
     3.3776   3.5293   3.7769   3.9344

          k =-0.4243-0.2450-0.0669 (  5482 PWs)   bands (ev):

   -32.8821 -15.0968 -14.4400 -14.3325 -12.2815 -12.0286  -0.2226   0.1373
     2.3695   3.4578   3.5121   3.9630

          k =-0.4243-0.2450-0.2007 (  5488 PWs)   bands (ev):

   -32.8817 -15.0740 -14.4524 -14.3315 -12.4001 -11.9270  -0.2864  -0.0841
     2.7453   3.4205   3.5025   3.9809

          k =-0.4243-0.2450-0.3345 (  5481 PWs)   bands (ev):

   -32.8814 -15.0386 -14.4713 -14.3304 -12.5655 -11.7754  -0.5167  -0.1608
     3.2430   3.2955   3.4144   4.1043

!    total energy              =    -140.08944959 Ry
     Harris-Foulkes estimate   =    -140.08944958 Ry
     estimated scf accuracy    <          7.2E-09 Ry

     The total energy is the sum of the following terms:

     one-electron contribution =     -51.32550094 Ry
     hartree contribution      =      36.13010307 Ry
     xc contribution           =     -26.02306069 Ry
     ewald contribution        =     -98.87099103 Ry

     convergence has been achieved in  11 iterations

     Forces acting on atoms (Ry/au):

     atom    1 type  3   force =     0.00000000   -0.00000000    0.00000000
     atom    2 type  2   force =    -0.00000000   -0.00000000    0.00002957
     atom    3 type  2   force =     0.00000000    0.00000000   -0.00002957
     atom    4 type  1   force =    -0.00000000    0.00000000   -0.00005266
     atom    5 type  1   force =     0.00000000   -0.00000000    0.00005266

     Total force =     0.000085     Total SCF correction =     0.000013
     SCF correction compared to forces is large: reduce conv_thr to get better values


     entering subroutine stress ...

          total   stress  (Ry/bohr**3)                   (kbar)     P=   97.73
   0.00066522   0.00000000  -0.00000000         97.86      0.00     -0.00
   0.00000000   0.00066522  -0.00000000          0.00     97.86     -0.00
  -0.00000000  -0.00000000   0.00066274         -0.00     -0.00     97.49


     Writing output data file CaOH2_ambient.save

     init_run     :     63.09s CPU     64.70s WALL (       2 calls)
     electrons    :   2836.59s CPU   2879.57s WALL (      15 calls)
     update_pot   :    770.39s CPU    772.36s WALL (      13 calls)
     forces       :    288.61s CPU    289.37s WALL (      15 calls)
     stress       :    643.75s CPU    645.10s WALL (      15 calls)

     Called by init_run:
     wfcinit      :     17.77s CPU     18.94s WALL (       2 calls)
     potinit      :     20.97s CPU     21.09s WALL (       2 calls)

     Called by electrons:
     c_bands      :   2378.53s CPU   2411.15s WALL (     143 calls)
     sum_band     :    411.15s CPU    419.88s WALL (     143 calls)
     v_of_rho     :     21.94s CPU     22.38s WALL (     157 calls)
     mix_rho      :     26.04s CPU     26.79s WALL (     143 calls)

     Called by c_bands:
     init_us_2    :     84.91s CPU     88.43s WALL (   20034 calls)
     cegterg      :   2334.75s CPU   2343.38s WALL (    9009 calls)

     Called by *egterg:
     h_psi        :   1785.40s CPU   1790.93s WALL (   28655 calls)
     g_psi        :     17.37s CPU     17.61s WALL (   19520 calls)
     cdiaghg      :     13.37s CPU     13.57s WALL (   27647 calls)

     Called by h_psi:
     add_vuspsi   :     47.36s CPU     47.52s WALL (   28655 calls)

     General routines
     calbec       :     53.02s CPU     53.23s WALL (   30545 calls)
     fft          :      6.10s CPU      6.12s WALL (    1847 calls)
     ffts         :     11.03s CPU     11.08s WALL (    3389 calls)
     fftw         :   1658.58s CPU   1661.88s WALL (  698124 calls)
     davcio       :      4.87s CPU     33.51s WALL (   29043 calls)


     PWSCF        :     1h16m CPU        1h17m WALL


   This run was terminated on:  11:21: 1  18Apr2014            

=------------------------------------------------------------------------------=
   JOB DONE.
=------------------------------------------------------------------------------=
