
     Program PWSCF v.5.0.2 (svn rev. 9392) starts on 19Apr2014 at  0: 5:29 

     This program is part of the open-source Quantum ESPRESSO suite
     for quantum simulation of materials; please cite
         "P. Giannozzi et al., J. Phys.:Condens. Matter 21 395502 (2009);
          URL http://www.quantum-espresso.org", 
     in publications or presentations arising from this work. More details at
     http://www.quantum-espresso.org/quote.php

     Serial version

     Current dimensions of program PWSCF are:
     Max number of different atomic species (ntypx) = 10
     Max number of k-points (npk) =  40000
     Max angular momentum in pseudopotentials (lmaxx) =  3
     Waiting for input...
     Reading input from standard input

     G-vector sticks info
     --------------------
     sticks:   dense  smooth     PW     G-vecs:    dense   smooth      PW
     Sum        1027    1027    367                34401    34401    7669



     bravais-lattice index     =            4
     lattice parameter (alat)  =       6.7864  a.u.
     unit-cell volume          =     356.1278 (a.u.)^3
     number of atoms/cell      =            5
     number of atomic types    =            3
     number of electrons       =        24.00
     number of Kohn-Sham states=           12
     kinetic-energy cutoff     =     100.0000  Ry
     charge density cutoff     =     320.0000  Ry
     convergence threshold     =      1.0E-06
     mixing beta               =       0.3000
     number of iterations used =           16  local-TF  mixing
     Exchange-correlation      = PBE ( 1 4 3 4 0)
     EXX-fraction              =        0.00
     nstep                     =           50


     celldm(1)=   6.786400  celldm(2)=   0.000000  celldm(3)=   1.315700
     celldm(4)=   0.000000  celldm(5)=   0.000000  celldm(6)=   0.000000

     crystal axes: (cart. coord. in units of alat)
               a(1) = (   1.000000   0.000000   0.000000 )  
               a(2) = (  -0.500000   0.866025   0.000000 )  
               a(3) = (   0.000000   0.000000   1.315700 )  

     reciprocal axes: (cart. coord. in units 2 pi/alat)
               b(1) = (  1.000000  0.577350 -0.000000 )  
               b(2) = (  0.000000  1.154701  0.000000 )  
               b(3) = (  0.000000 -0.000000  0.760052 )  


     PseudoPot. # 1 for H  read from file:
     /home/ilia/espresso/pseudo/H.pbe-sp-mt.ncpp
     MD5 check sum: 7a641936b52ccecd26bd1ad87cca5aed
     Pseudo is Norm-conserving, Zval =  1.0
     Generated by old ld1 code (numerical format)
     Using radial grid of 1076 points,  0 beta functions with: 

     PseudoPot. # 2 for O  read from file:
     /home/ilia/espresso/pseudo/O.pbe-sp-mt.ncpp
     MD5 check sum: 8a3d23d410d2f3ebfd0a39faacc72cbb
     Pseudo is Norm-conserving, Zval =  6.0
     Generated by old ld1 code (numerical format)
     Using radial grid of 1130 points,  1 beta functions with: 
                l(1) =   1

     PseudoPot. # 3 for Ca read from file:
     /home/ilia/espresso/pseudo/Ca.pbe-sp-mt_ion2.ncpp
     MD5 check sum: 4bcd670d05521f7b178fdf0a334578ab
     Pseudo is Norm-conserving, Zval = 10.0
     Generated by old ld1 code (numerical format)
     Using radial grid of 1153 points,  1 beta functions with: 
                l(1) =   1

     atomic species   valence    mass     pseudopotential
        H              1.00     1.00700     H ( 1.00)
        O              6.00    16.00000     O ( 1.00)
        Ca            10.00    40.07800     Ca( 1.00)

     12 Sym. Ops., with inversion, found



   Cartesian axes

     site n.     atom                  positions (alat units)
         1           Ca  tau(   1) = (   0.0000000   0.0000000   0.0000000  )
         2           O   tau(   2) = (   0.0000000   0.5773503   0.3065581  )
         3           O   tau(   3) = (   0.5000000   0.2886751   1.0091419  )
         4           H   tau(   4) = (   0.0000000   0.5773503   0.5710138  )
         5           H   tau(   5) = (   0.5000000   0.2886751   0.7446862  )

     number of k points=    63
                       cart. coord. in units 2pi/alat
        k(    1) = (   0.0833333   0.1443376   0.0633376), wk =   0.0370370
        k(    2) = (   0.0833333   0.1443376   0.1900129), wk =   0.0370370
        k(    3) = (   0.0833333   0.1443376   0.3166882), wk =   0.0370370
        k(    4) = (   0.0833333   0.3367877   0.0633376), wk =   0.0370370
        k(    5) = (   0.0833333   0.3367877   0.1900129), wk =   0.0370370
        k(    6) = (   0.0833333   0.3367877   0.3166882), wk =   0.0370370
        k(    7) = (   0.0833333   0.5292377   0.0633376), wk =   0.0370370
        k(    8) = (   0.0833333   0.5292377   0.1900129), wk =   0.0370370
        k(    9) = (   0.0833333   0.5292377   0.3166882), wk =   0.0370370
        k(   10) = (   0.0833333  -0.4330127   0.0633376), wk =   0.0370370
        k(   11) = (   0.0833333  -0.4330127   0.1900129), wk =   0.0370370
        k(   12) = (   0.0833333  -0.4330127   0.3166882), wk =   0.0370370
        k(   13) = (   0.0833333  -0.2405626   0.0633376), wk =   0.0370370
        k(   14) = (   0.0833333  -0.2405626   0.1900129), wk =   0.0370370
        k(   15) = (   0.0833333  -0.2405626   0.3166882), wk =   0.0370370
        k(   16) = (   0.0833333  -0.0481125   0.0633376), wk =   0.0185185
        k(   17) = (   0.0833333  -0.0481125   0.1900129), wk =   0.0185185
        k(   18) = (   0.0833333  -0.0481125   0.3166882), wk =   0.0185185
        k(   19) = (   0.2500000   0.4330127   0.0633376), wk =   0.0370370
        k(   20) = (   0.2500000   0.4330127   0.1900129), wk =   0.0370370
        k(   21) = (   0.2500000   0.4330127   0.3166882), wk =   0.0370370
        k(   22) = (   0.2500000   0.6254628   0.0633376), wk =   0.0370370
        k(   23) = (   0.2500000   0.6254628   0.1900129), wk =   0.0370370
        k(   24) = (   0.2500000   0.6254628   0.3166882), wk =   0.0370370
        k(   25) = (   0.2500000  -0.3367877   0.0633376), wk =   0.0370370
        k(   26) = (   0.2500000  -0.3367877   0.1900129), wk =   0.0370370
        k(   27) = (   0.2500000  -0.3367877   0.3166882), wk =   0.0370370
        k(   28) = (   0.2500000  -0.1443376   0.0633376), wk =   0.0185185
        k(   29) = (   0.2500000  -0.1443376   0.1900129), wk =   0.0185185
        k(   30) = (   0.2500000  -0.1443376   0.3166882), wk =   0.0185185
        k(   31) = (   0.4166667   0.7216878   0.0633376), wk =   0.0370370
        k(   32) = (   0.4166667   0.7216878   0.1900129), wk =   0.0370370
        k(   33) = (   0.4166667   0.7216878   0.3166882), wk =   0.0370370
        k(   34) = (   0.4166667  -0.2405626   0.0633376), wk =   0.0185185
        k(   35) = (   0.4166667  -0.2405626   0.1900129), wk =   0.0185185
        k(   36) = (   0.4166667  -0.2405626   0.3166882), wk =   0.0185185
        k(   37) = (  -0.0833333   0.3367877  -0.0633376), wk =   0.0370370
        k(   38) = (  -0.0833333   0.3367877  -0.1900129), wk =   0.0370370
        k(   39) = (  -0.0833333   0.3367877  -0.3166882), wk =   0.0370370
        k(   40) = (  -0.0833333   0.5292377  -0.0633376), wk =   0.0370370
        k(   41) = (  -0.0833333   0.5292377  -0.1900129), wk =   0.0370370
        k(   42) = (  -0.0833333   0.5292377  -0.3166882), wk =   0.0370370
        k(   43) = (  -0.0833333  -0.4330127  -0.0633376), wk =   0.0370370
        k(   44) = (  -0.0833333  -0.4330127  -0.1900129), wk =   0.0370370
        k(   45) = (  -0.0833333  -0.4330127  -0.3166882), wk =   0.0370370
        k(   46) = (  -0.0833333  -0.2405626  -0.0633376), wk =   0.0370370
        k(   47) = (  -0.0833333  -0.2405626  -0.1900129), wk =   0.0370370
        k(   48) = (  -0.0833333  -0.2405626  -0.3166882), wk =   0.0370370
        k(   49) = (  -0.0833333  -0.0481125  -0.0633376), wk =   0.0185185
        k(   50) = (  -0.0833333  -0.0481125  -0.1900129), wk =   0.0185185
        k(   51) = (  -0.0833333  -0.0481125  -0.3166882), wk =   0.0185185
        k(   52) = (  -0.2500000   0.6254628  -0.0633376), wk =   0.0370370
        k(   53) = (  -0.2500000   0.6254628  -0.1900129), wk =   0.0370370
        k(   54) = (  -0.2500000   0.6254628  -0.3166882), wk =   0.0370370
        k(   55) = (  -0.2500000  -0.3367877  -0.0633376), wk =   0.0370370
        k(   56) = (  -0.2500000  -0.3367877  -0.1900129), wk =   0.0370370
        k(   57) = (  -0.2500000  -0.3367877  -0.3166882), wk =   0.0370370
        k(   58) = (  -0.2500000  -0.1443376  -0.0633376), wk =   0.0185185
        k(   59) = (  -0.2500000  -0.1443376  -0.1900129), wk =   0.0185185
        k(   60) = (  -0.2500000  -0.1443376  -0.3166882), wk =   0.0185185
        k(   61) = (  -0.4166667  -0.2405626  -0.0633376), wk =   0.0185185
        k(   62) = (  -0.4166667  -0.2405626  -0.1900129), wk =   0.0185185
        k(   63) = (  -0.4166667  -0.2405626  -0.3166882), wk =   0.0185185

     Dense  grid:    34401 G-vectors     FFT dimensions: (  40,  40,  54)

     Largest allocated arrays     est. size (Mb)     dimensions
        Kohn-Sham Wavefunctions         1.10 Mb     (   6029,   12)
        NL pseudopotentials             0.83 Mb     (   6029,    9)
        Each V/rho on FFT grid          1.32 Mb     (  86400)
        Each G-vector array             0.26 Mb     (  34401)
        G-vector shells                 0.26 Mb     (  34401)
     Largest temporary arrays     est. size (Mb)     dimensions
        Auxiliary wavefunctions         4.42 Mb     (   6029,   48)
        Each subspace H/S matrix        0.04 Mb     (  48,  48)
        Each <psi_i|beta_j> matrix      0.00 Mb     (      9,   12)
        Arrays for rho mixing          21.09 Mb     (  86400,  16)

     Initial potential from superposition of free atoms

     starting charge   21.99998, renormalised to   24.00000
     Starting wfc are   14 randomized atomic wfcs

     total cpu time spent up to now is       53.6 secs

     per-process dynamical memory:    20.2 Mb

     Self-consistent Calculation

     iteration #  1     ecut=   100.00 Ry     beta=0.30
     Davidson diagonalization with overlap
     ethr =  1.00E-02,  avg # of iterations =  2.0

     total cpu time spent up to now is       79.3 secs

     total energy              =    -140.22488747 Ry
     Harris-Foulkes estimate   =    -140.30918376 Ry
     estimated scf accuracy    <       0.46285438 Ry

     iteration #  2     ecut=   100.00 Ry     beta=0.30
     Davidson diagonalization with overlap
     ethr =  1.93E-03,  avg # of iterations =  1.0

     total cpu time spent up to now is       96.4 secs

     total energy              =    -140.05196353 Ry
     Harris-Foulkes estimate   =    -140.23108251 Ry
     estimated scf accuracy    <       0.29014990 Ry

     iteration #  3     ecut=   100.00 Ry     beta=0.30
     Davidson diagonalization with overlap
     ethr =  1.21E-03,  avg # of iterations =  2.0

     total cpu time spent up to now is      117.3 secs

     total energy              =    -140.09816804 Ry
     Harris-Foulkes estimate   =    -140.09951753 Ry
     estimated scf accuracy    <       0.01159575 Ry

     iteration #  4     ecut=   100.00 Ry     beta=0.30
     Davidson diagonalization with overlap
     ethr =  4.83E-05,  avg # of iterations =  2.0

     total cpu time spent up to now is      137.2 secs

     total energy              =    -140.09822994 Ry
     Harris-Foulkes estimate   =    -140.09923559 Ry
     estimated scf accuracy    <       0.00564318 Ry

     iteration #  5     ecut=   100.00 Ry     beta=0.30
     Davidson diagonalization with overlap
     ethr =  2.35E-05,  avg # of iterations =  1.0

     total cpu time spent up to now is      154.4 secs

     total energy              =    -140.09776567 Ry
     Harris-Foulkes estimate   =    -140.09835720 Ry
     estimated scf accuracy    <       0.00145533 Ry

     iteration #  6     ecut=   100.00 Ry     beta=0.30
     Davidson diagonalization with overlap
     ethr =  6.06E-06,  avg # of iterations =  2.0

     total cpu time spent up to now is      175.8 secs

     total energy              =    -140.09797687 Ry
     Harris-Foulkes estimate   =    -140.09795961 Ry
     estimated scf accuracy    <       0.00014859 Ry

     iteration #  7     ecut=   100.00 Ry     beta=0.30
     Davidson diagonalization with overlap
     ethr =  6.19E-07,  avg # of iterations =  2.0

     total cpu time spent up to now is      195.1 secs

     total energy              =    -140.09798046 Ry
     Harris-Foulkes estimate   =    -140.09798947 Ry
     estimated scf accuracy    <       0.00005700 Ry

     iteration #  8     ecut=   100.00 Ry     beta=0.30
     Davidson diagonalization with overlap
     ethr =  2.37E-07,  avg # of iterations =  2.0

     total cpu time spent up to now is      215.8 secs

     total energy              =    -140.09797894 Ry
     Harris-Foulkes estimate   =    -140.09798619 Ry
     estimated scf accuracy    <       0.00002106 Ry

     iteration #  9     ecut=   100.00 Ry     beta=0.30
     Davidson diagonalization with overlap
     ethr =  8.77E-08,  avg # of iterations =  2.0

     total cpu time spent up to now is      237.6 secs

     total energy              =    -140.09798125 Ry
     Harris-Foulkes estimate   =    -140.09798143 Ry
     estimated scf accuracy    <       0.00000137 Ry

     iteration # 10     ecut=   100.00 Ry     beta=0.30
     Davidson diagonalization with overlap
     ethr =  5.69E-09,  avg # of iterations =  3.0

     total cpu time spent up to now is      263.4 secs

     total energy              =    -140.09798139 Ry
     Harris-Foulkes estimate   =    -140.09798209 Ry
     estimated scf accuracy    <       0.00000191 Ry

     iteration # 11     ecut=   100.00 Ry     beta=0.30
     Davidson diagonalization with overlap
     ethr =  5.69E-09,  avg # of iterations =  2.0

     total cpu time spent up to now is      285.4 secs

     End of self-consistent calculation

          k = 0.0833 0.1443 0.0633 (  6010 PWs)   bands (ev):

   -33.8063 -15.6452 -15.3588 -15.1562 -13.7619 -12.9561  -1.9587  -0.2106
     2.3608   2.4292   2.9928   3.3599

          k = 0.0833 0.1443 0.1900 (  6001 PWs)   bands (ev):

   -33.8061 -15.6892 -15.3415 -15.1559 -13.6411 -13.0548  -1.7960  -0.5387
     2.3968   2.5587   2.9938   3.2920

          k = 0.0833 0.1443 0.3167 (  6026 PWs)   bands (ev):

   -33.8060 -15.7278 -15.3285 -15.1555 -13.4445 -13.2306  -1.4952  -0.9887
     2.5084   2.6167   3.0086   3.1866

          k = 0.0833 0.3368 0.0633 (  6015 PWs)   bands (ev):

   -33.7873 -15.7298 -15.4863 -15.2074 -13.4706 -13.0732  -1.5761  -0.5128
     2.0637   2.4467   2.5560   3.2277

          k = 0.0833 0.3368 0.1900 (  6011 PWs)   bands (ev):

   -33.7872 -15.7056 -15.5122 -15.2067 -13.5235 -13.0166  -1.5597  -0.7435
     2.2554   2.4303   2.6765   3.2128

          k = 0.0833 0.3368 0.3167 (  6013 PWs)   bands (ev):

   -33.7870 -15.6983 -15.5238 -15.2062 -13.5109 -13.0276  -1.4292  -1.0380
     2.4340   2.5366   2.6944   3.1064

          k = 0.0833 0.5292 0.0633 (  6018 PWs)   bands (ev):

   -33.7733 -15.9400 -15.3345 -15.2608 -13.4910 -13.0035  -1.1571  -0.8306
     1.5589   2.5242   2.5865   3.0708

          k = 0.0833 0.5292 0.1900 (  6017 PWs)   bands (ev):

   -33.7732 -15.9230 -15.3415 -15.2600 -13.5711 -12.9350  -1.2997  -0.8879
     1.8193   2.5041   2.6285   3.0692

          k = 0.0833 0.5292 0.3167 (  6023 PWs)   bands (ev):

   -33.7731 -15.9090 -15.3459 -15.2598 -13.6190 -12.8998  -1.3841  -0.9723
     2.1432   2.4933   2.5839   3.0354

          k = 0.0833-0.4330 0.0633 (  6013 PWs)   bands (ev):

   -33.7785 -15.8749 -15.3927 -15.2360 -13.3747 -13.1334  -1.2775  -0.7213
     1.7418   2.4776   2.6179   3.0442

          k = 0.0833-0.4330 0.1900 (  6017 PWs)   bands (ev):

   -33.7783 -15.8641 -15.4000 -15.2355 -13.4204 -13.0949  -1.2257  -0.9585
     2.0068   2.4691   2.7457   2.8993

          k = 0.0833-0.4330 0.3167 (  6018 PWs)   bands (ev):

   -33.7782 -15.8432 -15.4143 -15.2347 -13.5278 -12.9928  -1.2685  -1.1131
     2.3289   2.4652   2.6516   2.9571

          k = 0.0833-0.2406 0.0633 (  6004 PWs)   bands (ev):

   -33.7975 -15.6105 -15.5151 -15.1793 -13.5553 -13.0625  -1.7688  -0.3537
     2.3237   2.4895   2.6343   3.2415

          k = 0.0833-0.2406 0.1900 (  6000 PWs)   bands (ev):

   -33.7973 -15.6444 -15.4955 -15.1789 -13.4647 -13.1416  -1.6411  -0.6636
     2.3792   2.6443   2.7301   3.1144

          k = 0.0833-0.2406 0.3167 (  6012 PWs)   bands (ev):

   -33.7971 -15.6615 -15.4908 -15.1784 -13.3783 -13.2163  -1.4047  -1.0746
     2.5054   2.6458   2.8561   3.0450

          k = 0.0833-0.0481 0.0633 (  6015 PWs)   bands (ev):

   -33.8114 -15.6802 -15.2255 -15.1441 -13.9033 -12.8989  -2.0604  -0.1285
     2.3612   2.3914   3.2473   3.4330

          k = 0.0833-0.0481 0.1900 (  6009 PWs)   bands (ev):

   -33.8112 -15.7277 -15.2171 -15.1438 -13.7555 -13.0148  -1.8718  -0.4659
     2.4059   2.4987   3.1720   3.3763

          k = 0.0833-0.0481 0.3167 (  6023 PWs)   bands (ev):

   -33.8110 -15.7714 -15.2104 -15.1435 -13.5254 -13.2155  -1.5351  -0.9364
     2.5067   2.5761   3.1242   3.2511

          k = 0.2500 0.4330 0.0633 (  6021 PWs)   bands (ev):

   -33.7734 -15.8053 -15.4849 -15.3065 -13.2720 -13.1603  -1.2029  -0.7815
     1.7916   2.2911   2.4226   3.2047

          k = 0.2500 0.4330 0.1900 (  6009 PWs)   bands (ev):

   -33.7732 -15.7902 -15.4898 -15.3089 -13.3526 -13.0925  -1.2286  -0.9245
     2.0050   2.3521   2.5360   3.0384

          k = 0.2500 0.4330 0.3167 (  6017 PWs)   bands (ev):

   -33.7731 -15.7742 -15.4957 -15.3110 -13.4048 -13.0534  -1.2317  -1.0762
     2.2631   2.4717   2.6442   2.7600

          k = 0.2500 0.6255 0.0633 (  6026 PWs)   bands (ev):

   -33.7696 -15.7968 -15.5330 -15.3127 -13.2675 -13.1339  -1.0539  -0.9041
     1.7199   2.2725   2.3521   3.2258

          k = 0.2500 0.6255 0.1900 (  6022 PWs)   bands (ev):

   -33.7695 -15.7859 -15.5297 -15.3170 -13.3101 -13.1093  -1.1084  -0.9966
     1.9284   2.3376   2.4611   3.0332

          k = 0.2500 0.6255 0.3167 (  5993 PWs)   bands (ev):

   -33.7693 -15.7735 -15.5277 -15.3211 -13.3524 -13.0849  -1.1815  -1.0631
     2.2392   2.4155   2.5631   2.7265

          k = 0.2500-0.3368 0.0633 (  6005 PWs)   bands (ev):

   -33.7798 -15.7865 -15.4649 -15.2650 -13.3606 -13.1242  -1.3905  -0.6439
     1.9110   2.3803   2.4865   3.1953

          k = 0.2500-0.3368 0.1900 (  6026 PWs)   bands (ev):

   -33.7797 -15.7657 -15.4821 -15.2643 -13.4422 -13.0473  -1.4016  -0.8310
     2.1159   2.4043   2.6210   3.0959

          k = 0.2500-0.3368 0.3167 (  6027 PWs)   bands (ev):

   -33.7796 -15.7500 -15.4951 -15.2640 -13.4718 -13.0236  -1.3393  -1.0586
     2.3249   2.5207   2.6846   2.9244

          k = 0.2500-0.1443 0.0633 (  6013 PWs)   bands (ev):

   -33.7938 -15.6488 -15.5183 -15.1784 -13.5532 -13.0384  -1.7184  -0.4080
     2.2365   2.4374   2.6124   3.2889

          k = 0.2500-0.1443 0.1900 (  6007 PWs)   bands (ev):

   -33.7936 -15.6305 -15.5441 -15.1780 -13.5603 -13.0218  -1.6604  -0.6759
     2.4212   2.4226   2.6853   3.3009

          k = 0.2500-0.1443 0.3167 (  6004 PWs)   bands (ev):

   -33.7934 -15.6517 -15.5336 -15.1776 -13.5003 -13.0741  -1.4680  -1.0270
     2.5058   2.5922   2.7025   3.1914

          k = 0.4167 0.7217 0.0633 (  6019 PWs)   bands (ev):

   -33.7710 -15.8885 -15.3913 -15.3175 -13.3865 -13.0555  -1.0626  -0.9034
     1.6158   2.3896   2.4706   3.1533

          k = 0.4167 0.7217 0.1900 (  6008 PWs)   bands (ev):

   -33.7708 -15.8750 -15.3901 -15.3221 -13.4457 -13.0117  -1.1813  -0.9535
     1.8551   2.4151   2.5599   3.0264

          k = 0.4167 0.7217 0.3167 (  6010 PWs)   bands (ev):

   -33.7707 -15.8613 -15.3887 -15.3268 -13.4957 -12.9774  -1.2841  -1.0069
     2.1769   2.4361   2.5916   2.8649

          k = 0.4167-0.2406 0.0633 (  6016 PWs)   bands (ev):

   -33.7761 -15.9300 -15.3555 -15.2124 -13.5245 -12.9950  -1.2718  -0.7433
     1.6029   2.5807   2.6103   3.0687

          k = 0.4167-0.2406 0.1900 (  6020 PWs)   bands (ev):

   -33.7759 -15.9104 -15.3655 -15.2119 -13.6153 -12.9122  -1.3942  -0.8392
     1.8619   2.5133   2.6662   3.1328

          k = 0.4167-0.2406 0.3167 (  6029 PWs)   bands (ev):

   -33.7758 -15.8975 -15.3717 -15.2114 -13.6516 -12.8856  -1.4324  -0.9698
     2.1736   2.5142   2.5998   3.1178

          k =-0.0833 0.3368-0.0633 (  6015 PWs)   bands (ev):

   -33.7873 -15.7450 -15.4740 -15.2076 -13.3661 -13.1793  -1.5263  -0.5314
     2.0636   2.4752   2.5642   3.1269

          k =-0.0833 0.3368-0.1900 (  6011 PWs)   bands (ev):

   -33.7872 -15.7401 -15.4834 -15.2070 -13.3246 -13.2191  -1.4329  -0.8128
     2.2696   2.4975   2.7373   2.9486

          k =-0.0833 0.3368-0.3167 (  6013 PWs)   bands (ev):

   -33.7870 -15.7184 -15.5066 -15.2064 -13.4366 -13.1037  -1.2778  -1.1625
     2.4840   2.5478   2.7311   2.9502

          k =-0.0833 0.5292-0.0633 (  6018 PWs)   bands (ev):

   -33.7733 -15.9432 -15.3322 -15.2614 -13.4603 -13.0350  -1.0815  -0.8907
     1.5582   2.5010   2.6276   3.0251

          k =-0.0833 0.5292-0.1900 (  6017 PWs)   bands (ev):

   -33.7732 -15.9296 -15.3367 -15.2611 -13.5234 -12.9843  -1.1765  -0.9823
     1.8293   2.4962   2.6601   2.9803

          k =-0.0833 0.5292-0.3167 (  6023 PWs)   bands (ev):

   -33.7731 -15.9124 -15.3434 -15.2603 -13.5989 -12.9207  -1.3350  -1.0079
     2.1699   2.4701   2.5922   2.9968

          k =-0.0833-0.4330-0.0633 (  6013 PWs)   bands (ev):

   -33.7785 -15.8658 -15.3989 -15.2356 -13.4704 -13.0357  -1.3587  -0.6750
     1.7404   2.5084   2.5534   3.1460

          k =-0.0833-0.4330-0.1900 (  6017 PWs)   bands (ev):

   -33.7783 -15.8447 -15.4136 -15.2348 -13.5590 -12.9523  -1.4308  -0.8177
     1.9749   2.4663   2.6598   3.1477

          k =-0.0833-0.4330-0.3167 (  6018 PWs)   bands (ev):

   -33.7782 -15.8329 -15.4218 -15.2343 -13.5824 -12.9362  -1.4127  -0.9990
     2.2514   2.5066   2.6368   3.0698

          k =-0.0833-0.2406-0.0633 (  6004 PWs)   bands (ev):

   -33.7975 -15.5860 -15.5380 -15.1792 -13.5834 -13.0339  -1.7866  -0.3500
     2.3824   2.4060   2.6283   3.3046

          k =-0.0833-0.2406-0.1900 (  6000 PWs)   bands (ev):

   -33.7973 -15.6150 -15.5218 -15.1788 -13.5378 -13.0672  -1.6857  -0.6449
     2.4028   2.5787   2.6813   3.2651

          k =-0.0833-0.2406-0.3167 (  6012 PWs)   bands (ev):

   -33.7971 -15.6503 -15.5005 -15.1783 -13.4422 -13.1516  -1.4545  -1.0369
     2.4983   2.6488   2.7830   3.1500

          k =-0.0833-0.0481-0.0633 (  6015 PWs)   bands (ev):

   -33.8114 -15.6809 -15.2252 -15.1441 -13.9007 -12.9014  -2.0582  -0.1285
     2.3527   2.3997   3.2923   3.3820

          k =-0.0833-0.0481-0.1900 (  6009 PWs)   bands (ev):

   -33.8112 -15.7290 -15.2165 -15.1438 -13.7487 -13.0215  -1.8665  -0.4672
     2.4049   2.4988   3.2584   3.2802

          k =-0.0833-0.0481-0.3167 (  6023 PWs)   bands (ev):

   -33.8110 -15.7720 -15.2101 -15.1435 -13.5173 -13.2235  -1.5299  -0.9397
     2.5144   2.5673   3.1781   3.1938

          k =-0.2500 0.6255-0.0633 (  6026 PWs)   bands (ev):

   -33.7696 -15.7957 -15.5340 -15.3126 -13.2815 -13.1197  -1.0715  -0.8889
     1.7186   2.2974   2.3280   3.2307

          k =-0.2500 0.6255-0.1900 (  6022 PWs)   bands (ev):

   -33.7695 -15.7835 -15.5320 -15.3167 -13.3290 -13.0901  -1.1453  -0.9643
     1.9226   2.3660   2.4357   3.0445

          k =-0.2500 0.6255-0.3167 (  5993 PWs)   bands (ev):

   -33.7693 -15.7723 -15.5290 -15.3209 -13.3599 -13.0772  -1.2001  -1.0467
     2.2250   2.4448   2.5397   2.7390

          k =-0.2500-0.3368-0.0633 (  6005 PWs)   bands (ev):

   -33.7798 -15.7924 -15.4599 -15.2654 -13.2506 -13.2352  -1.3596  -0.6598
     1.9165   2.3542   2.5168   3.1565

          k =-0.2500-0.3368-0.1900 (  6026 PWs)   bands (ev):

   -33.7797 -15.7788 -15.4708 -15.2652 -13.3511 -13.1404  -1.3226  -0.8823
     2.1474   2.3746   2.6647   2.9950

          k =-0.2500-0.3368-0.3167 (  6027 PWs)   bands (ev):

   -33.7796 -15.7574 -15.4886 -15.2644 -13.4386 -13.0577  -1.2533  -1.1316
     2.3675   2.4861   2.7617   2.8127

          k =-0.2500-0.1443-0.0633 (  6013 PWs)   bands (ev):

   -33.7938 -15.6750 -15.4957 -15.1784 -13.4770 -13.1161  -1.6737  -0.4200
     2.2084   2.5443   2.5920   3.1586

          k =-0.2500-0.1443-0.1900 (  6007 PWs)   bands (ev):

   -33.7936 -15.6880 -15.4936 -15.1781 -13.3662 -13.2190  -1.5475  -0.7285
     2.3376   2.6805   2.6975   2.9792

          k =-0.2500-0.1443-0.3167 (  6004 PWs)   bands (ev):

   -33.7934 -15.6797 -15.5091 -15.1777 -13.3976 -13.1784  -1.3379  -1.1288
     2.5102   2.6596   2.7441   3.0143

          k =-0.4167-0.2406-0.0633 (  6016 PWs)   bands (ev):

   -33.7761 -15.9368 -15.3520 -15.2124 -13.4584 -13.0626  -1.1711  -0.8110
     1.6009   2.5617   2.6838   2.9545

          k =-0.4167-0.2406-0.1900 (  6020 PWs)   bands (ev):

   -33.7759 -15.9246 -15.3579 -15.2119 -13.5132 -13.0172  -1.1632  -1.0094
     1.8815   2.5497   2.6953   2.9289

          k =-0.4167-0.2406-0.3167 (  6029 PWs)   bands (ev):

   -33.7758 -15.9049 -15.3676 -15.2115 -13.6092 -12.9295  -1.3264  -1.0473
     2.2262   2.5004   2.5869   3.0341

!    total energy              =    -140.09798162 Ry
     Harris-Foulkes estimate   =    -140.09798166 Ry
     estimated scf accuracy    <       0.00000008 Ry

     The total energy is the sum of the following terms:

     one-electron contribution =     -61.80244438 Ry
     hartree contribution      =      40.54927104 Ry
     xc contribution           =     -26.03034424 Ry
     ewald contribution        =     -92.81446403 Ry

     convergence has been achieved in  11 iterations

     Forces acting on atoms (Ry/au):

     atom    1 type  3   force =     0.00000000   -0.00000000    0.00000000
     atom    2 type  2   force =     0.00000000    0.00000000   -0.03558402
     atom    3 type  2   force =     0.00000000   -0.00000000    0.03558402
     atom    4 type  1   force =     0.00000000    0.00000000    0.05742705
     atom    5 type  1   force =     0.00000000   -0.00000000   -0.05742705

     Total force =     0.095541     Total SCF correction =     0.000059


     entering subroutine stress ...

          total   stress  (Ry/bohr**3)                   (kbar)     P=   89.54
   0.00042420   0.00000000   0.00000000         62.40      0.00      0.00
   0.00000000   0.00042420   0.00000000          0.00     62.40      0.00
   0.00000000   0.00000000   0.00097774          0.00      0.00    143.83


     BFGS Geometry Optimization

     number of scf cycles    =   1
     number of bfgs steps    =   0

     enthalpy new            =    -140.0979816173 Ry

     new trust radius        =       0.0922562316 bohr
     new conv_thr            =       0.0000010000 Ry

     new unit-cell volume =    372.61184 a.u.^3 (    55.21538 Ang^3 )

CELL_PARAMETERS (alat=  6.78640000)
   1.010604878   0.000000000   0.000000000
  -0.505302439   0.875209497   0.000000000
   0.000000000   0.000000000   1.347860268

ATOMIC_POSITIONS (crystal)
Ca      -0.000000000  -0.000000000   0.000000000
O        0.333333333   0.666666667   0.229014722
O        0.666666667   0.333333333   0.770985278
H        0.333333333   0.666666667   0.440431617
H        0.666666667   0.333333333   0.559568383



     Writing output data file CaOH2_ambient.save
     NEW-OLD atomic charge density approx. for the potential
     NEW k-points:
        k(    1) = (   0.0824589   0.1428229   0.0618264), wk =   0.0370370
        k(    2) = (   0.0824589   0.1428229   0.1854792), wk =   0.0370370
        k(    3) = (   0.0824589   0.1428229   0.3091319), wk =   0.0370370
        k(    4) = (   0.0824589   0.3332535   0.0618264), wk =   0.0370370
        k(    5) = (   0.0824589   0.3332535   0.1854792), wk =   0.0370370
        k(    6) = (   0.0824589   0.3332535   0.3091319), wk =   0.0370370
        k(    7) = (   0.0824589   0.5236841   0.0618264), wk =   0.0370370
        k(    8) = (   0.0824589   0.5236841   0.1854792), wk =   0.0370370
        k(    9) = (   0.0824589   0.5236841   0.3091319), wk =   0.0370370
        k(   10) = (   0.0824589  -0.4284688   0.0618264), wk =   0.0370370
        k(   11) = (   0.0824589  -0.4284688   0.1854792), wk =   0.0370370
        k(   12) = (   0.0824589  -0.4284688   0.3091319), wk =   0.0370370
        k(   13) = (   0.0824589  -0.2380382   0.0618264), wk =   0.0370370
        k(   14) = (   0.0824589  -0.2380382   0.1854792), wk =   0.0370370
        k(   15) = (   0.0824589  -0.2380382   0.3091319), wk =   0.0370370
        k(   16) = (   0.0824589  -0.0476076   0.0618264), wk =   0.0185185
        k(   17) = (   0.0824589  -0.0476076   0.1854792), wk =   0.0185185
        k(   18) = (   0.0824589  -0.0476076   0.3091319), wk =   0.0185185
        k(   19) = (   0.2473766   0.4284688   0.0618264), wk =   0.0370370
        k(   20) = (   0.2473766   0.4284688   0.1854792), wk =   0.0370370
        k(   21) = (   0.2473766   0.4284688   0.3091319), wk =   0.0370370
        k(   22) = (   0.2473766   0.6188994   0.0618264), wk =   0.0370370
        k(   23) = (   0.2473766   0.6188994   0.1854792), wk =   0.0370370
        k(   24) = (   0.2473766   0.6188994   0.3091319), wk =   0.0370370
        k(   25) = (   0.2473766  -0.3332535   0.0618264), wk =   0.0370370
        k(   26) = (   0.2473766  -0.3332535   0.1854792), wk =   0.0370370
        k(   27) = (   0.2473766  -0.3332535   0.3091319), wk =   0.0370370
        k(   28) = (   0.2473766  -0.1428229   0.0618264), wk =   0.0185185
        k(   29) = (   0.2473766  -0.1428229   0.1854792), wk =   0.0185185
        k(   30) = (   0.2473766  -0.1428229   0.3091319), wk =   0.0185185
        k(   31) = (   0.4122943   0.7141147   0.0618264), wk =   0.0370370
        k(   32) = (   0.4122943   0.7141147   0.1854792), wk =   0.0370370
        k(   33) = (   0.4122943   0.7141147   0.3091319), wk =   0.0370370
        k(   34) = (   0.4122943  -0.2380382   0.0618264), wk =   0.0185185
        k(   35) = (   0.4122943  -0.2380382   0.1854792), wk =   0.0185185
        k(   36) = (   0.4122943  -0.2380382   0.3091319), wk =   0.0185185
        k(   37) = (  -0.0824589   0.3332535  -0.0618264), wk =   0.0370370
        k(   38) = (  -0.0824589   0.3332535  -0.1854792), wk =   0.0370370
        k(   39) = (  -0.0824589   0.3332535  -0.3091319), wk =   0.0370370
        k(   40) = (  -0.0824589   0.5236841  -0.0618264), wk =   0.0370370
        k(   41) = (  -0.0824589   0.5236841  -0.1854792), wk =   0.0370370
        k(   42) = (  -0.0824589   0.5236841  -0.3091319), wk =   0.0370370
        k(   43) = (  -0.0824589  -0.4284688  -0.0618264), wk =   0.0370370
        k(   44) = (  -0.0824589  -0.4284688  -0.1854792), wk =   0.0370370
        k(   45) = (  -0.0824589  -0.4284688  -0.3091319), wk =   0.0370370
        k(   46) = (  -0.0824589  -0.2380382  -0.0618264), wk =   0.0370370
        k(   47) = (  -0.0824589  -0.2380382  -0.1854792), wk =   0.0370370
        k(   48) = (  -0.0824589  -0.2380382  -0.3091319), wk =   0.0370370
        k(   49) = (  -0.0824589  -0.0476076  -0.0618264), wk =   0.0185185
        k(   50) = (  -0.0824589  -0.0476076  -0.1854792), wk =   0.0185185
        k(   51) = (  -0.0824589  -0.0476076  -0.3091319), wk =   0.0185185
        k(   52) = (  -0.2473766   0.6188994  -0.0618264), wk =   0.0370370
        k(   53) = (  -0.2473766   0.6188994  -0.1854792), wk =   0.0370370
        k(   54) = (  -0.2473766   0.6188994  -0.3091319), wk =   0.0370370
        k(   55) = (  -0.2473766  -0.3332535  -0.0618264), wk =   0.0370370
        k(   56) = (  -0.2473766  -0.3332535  -0.1854792), wk =   0.0370370
        k(   57) = (  -0.2473766  -0.3332535  -0.3091319), wk =   0.0370370
        k(   58) = (  -0.2473766  -0.1428229  -0.0618264), wk =   0.0185185
        k(   59) = (  -0.2473766  -0.1428229  -0.1854792), wk =   0.0185185
        k(   60) = (  -0.2473766  -0.1428229  -0.3091319), wk =   0.0185185
        k(   61) = (  -0.4122943  -0.2380382  -0.0618264), wk =   0.0185185
        k(   62) = (  -0.4122943  -0.2380382  -0.1854792), wk =   0.0185185
        k(   63) = (  -0.4122943  -0.2380382  -0.3091319), wk =   0.0185185
     extrapolated charge   24.97326, renormalised to   24.00000

     total cpu time spent up to now is      412.9 secs

     per-process dynamical memory:    24.8 Mb

     Self-consistent Calculation

     iteration #  1     ecut=   100.00 Ry     beta=0.30
     Davidson diagonalization with overlap
     ethr =  1.00E-06,  avg # of iterations =  6.0

     total cpu time spent up to now is      458.3 secs

     total energy              =    -139.94597884 Ry
     Harris-Foulkes estimate   =    -138.15292263 Ry
     estimated scf accuracy    <       0.26336702 Ry

     iteration #  2     ecut=   100.00 Ry     beta=0.30
     Davidson diagonalization with overlap
     ethr =  1.10E-03,  avg # of iterations =  3.0

     total cpu time spent up to now is      486.0 secs

     total energy              =    -140.10647247 Ry
     Harris-Foulkes estimate   =    -140.11249337 Ry
     estimated scf accuracy    <       0.03880101 Ry

     iteration #  3     ecut=   100.00 Ry     beta=0.30
     Davidson diagonalization with overlap
     ethr =  1.62E-04,  avg # of iterations =  1.0

     total cpu time spent up to now is      503.2 secs

     total energy              =    -140.09554545 Ry
     Harris-Foulkes estimate   =    -140.10727069 Ry
     estimated scf accuracy    <       0.02113873 Ry

     iteration #  4     ecut=   100.00 Ry     beta=0.30
     Davidson diagonalization with overlap
     ethr =  8.81E-05,  avg # of iterations =  2.0

     total cpu time spent up to now is      525.7 secs

     total energy              =    -140.10192480 Ry
     Harris-Foulkes estimate   =    -140.10249744 Ry
     estimated scf accuracy    <       0.00355173 Ry

     iteration #  5     ecut=   100.00 Ry     beta=0.30
     Davidson diagonalization with overlap
     ethr =  1.48E-05,  avg # of iterations =  1.0

     total cpu time spent up to now is      543.0 secs

     total energy              =    -140.10098378 Ry
     Harris-Foulkes estimate   =    -140.10199847 Ry
     estimated scf accuracy    <       0.00197429 Ry

     iteration #  6     ecut=   100.00 Ry     beta=0.30
     Davidson diagonalization with overlap
     ethr =  8.23E-06,  avg # of iterations =  2.0

     total cpu time spent up to now is      565.4 secs

     total energy              =    -140.10147603 Ry
     Harris-Foulkes estimate   =    -140.10152455 Ry
     estimated scf accuracy    <       0.00013801 Ry

     iteration #  7     ecut=   100.00 Ry     beta=0.30
     Davidson diagonalization with overlap
     ethr =  5.75E-07,  avg # of iterations =  2.0

     total cpu time spent up to now is      588.0 secs

     total energy              =    -140.10148131 Ry
     Harris-Foulkes estimate   =    -140.10149493 Ry
     estimated scf accuracy    <       0.00002470 Ry

     iteration #  8     ecut=   100.00 Ry     beta=0.30
     Davidson diagonalization with overlap
     ethr =  1.03E-07,  avg # of iterations =  3.0

     total cpu time spent up to now is      612.6 secs

     total energy              =    -140.10148636 Ry
     Harris-Foulkes estimate   =    -140.10149765 Ry
     estimated scf accuracy    <       0.00003810 Ry

     iteration #  9     ecut=   100.00 Ry     beta=0.30
     Davidson diagonalization with overlap
     ethr =  1.03E-07,  avg # of iterations =  2.0

     total cpu time spent up to now is      633.9 secs

     total energy              =    -140.10148564 Ry
     Harris-Foulkes estimate   =    -140.10148889 Ry
     estimated scf accuracy    <       0.00000656 Ry

     iteration # 10     ecut=   100.00 Ry     beta=0.30
     Davidson diagonalization with overlap
     ethr =  2.73E-08,  avg # of iterations =  2.0

     total cpu time spent up to now is      656.5 secs

     End of self-consistent calculation

          k = 0.0825 0.1428 0.0618 (  6010 PWs)   bands (ev):

   -34.3016 -16.0454 -15.7968 -15.6543 -13.6797 -12.9436  -2.1061  -0.2836
     2.0766   2.1391   2.6625   3.0194

          k = 0.0825 0.1428 0.1855 (  6001 PWs)   bands (ev):

   -34.3015 -16.0698 -15.7896 -15.6541 -13.5741 -13.0370  -1.9308  -0.6371
     2.1127   2.2516   2.6810   2.9583

          k = 0.0825 0.1428 0.3091 (  6026 PWs)   bands (ev):

   -34.3014 -16.0926 -15.7835 -15.6538 -13.3981 -13.2015  -1.5934  -1.1323
     2.2133   2.3054   2.6993   2.8684

          k = 0.0825 0.3333 0.0618 (  6015 PWs)   bands (ev):

   -34.2853 -16.1043 -15.9202 -15.6991 -13.4122 -13.0502  -1.7309  -0.5873
     1.7732   2.1589   2.2374   2.8854

          k = 0.0825 0.3333 0.1855 (  6011 PWs)   bands (ev):

   -34.2852 -16.0915 -15.9343 -15.6987 -13.4505 -13.0087  -1.7064  -0.8335
     1.9657   2.1515   2.3598   2.8681

          k = 0.0825 0.3333 0.3091 (  6013 PWs)   bands (ev):

   -34.2851 -16.0877 -15.9412 -15.6983 -13.4329 -13.0253  -1.5715  -1.1390
     2.1523   2.2489   2.3797   2.7697

          k = 0.0825 0.5237 0.0618 (  6018 PWs)   bands (ev):

   -34.2733 -16.2875 -15.8127 -15.7417 -13.3920 -12.9983  -1.3077  -0.9207
     1.2904   2.2021   2.2868   2.7306

          k = 0.0825 0.5237 0.1855 (  6017 PWs)   bands (ev):

   -34.2732 -16.2774 -15.8172 -15.7411 -13.4614 -12.9347  -1.4411  -0.9949
     1.5445   2.2205   2.3187   2.7222

          k = 0.0825 0.5237 0.3091 (  6023 PWs)   bands (ev):

   -34.2731 -16.2691 -15.8204 -15.7408 -13.5006 -12.9023  -1.5208  -1.0912
     1.8527   2.2194   2.3002   2.6832

          k = 0.0825-0.4285 0.0618 (  6013 PWs)   bands (ev):

   -34.2777 -16.2274 -15.8537 -15.7232 -13.2978 -13.1172  -1.4379  -0.8000
     1.4649   2.1560   2.3160   2.7139

          k = 0.0825-0.4285 0.1855 (  6017 PWs)   bands (ev):

   -34.2776 -16.2209 -15.8585 -15.7228 -13.3353 -13.0838  -1.3968  -1.0363
     1.7237   2.1674   2.4453   2.5699

          k = 0.0825-0.4285 0.3091 (  6018 PWs)   bands (ev):

   -34.2775 -16.2090 -15.8667 -15.7222 -13.4305 -12.9905  -1.4323  -1.2020
     2.0275   2.1850   2.3703   2.6148

          k = 0.0825-0.2380 0.0618 (  6004 PWs)   bands (ev):

   -34.2940 -16.0091 -15.9312 -15.6746 -13.5047 -13.0337  -1.9224  -0.4257
     2.0329   2.1938   2.3136   2.9081

          k = 0.0825-0.2380 0.1855 (  6000 PWs)   bands (ev):

   -34.2939 -16.0295 -15.9204 -15.6743 -13.4222 -13.1094  -1.7860  -0.7552
     2.0923   2.3291   2.4196   2.7960

          k = 0.0825-0.2380 0.3091 (  6012 PWs)   bands (ev):

   -34.2938 -16.0411 -15.9171 -15.6740 -13.3311 -13.1932  -1.5316  -1.1895
     2.2160   2.3416   2.5296   2.7371

          k = 0.0825-0.0476 0.0618 (  6015 PWs)   bands (ev):

   -34.3060 -16.0737 -15.6981 -15.6436 -13.7898 -12.8947  -2.2039  -0.2030
     2.0819   2.1047   2.9119   3.0880

          k = 0.0825-0.0476 0.1855 (  6009 PWs)   bands (ev):

   -34.3059 -16.1004 -15.6949 -15.6434 -13.6651 -13.0034  -2.0009  -0.5693
     2.1211   2.1986   2.8544   3.0388

          k = 0.0825-0.0476 0.3091 (  6023 PWs)   bands (ev):

   -34.3058 -16.1262 -15.6921 -15.6432 -13.4635 -13.1901  -1.6173  -1.0979
     2.2072   2.2659   2.8178   2.9323

          k = 0.2474 0.4285 0.0618 (  6021 PWs)   bands (ev):

   -34.2733 -16.1725 -15.9132 -15.7904 -13.2204 -13.1351  -1.3529  -0.8706
     1.5208   1.9870   2.1192   2.8520

          k = 0.2474 0.4285 0.1855 (  6009 PWs)   bands (ev):

   -34.2732 -16.1637 -15.9159 -15.7920 -13.2901 -13.0730  -1.3799  -1.0226
     1.7256   2.0629   2.2318   2.6986

          k = 0.2474 0.4285 0.3091 (  6017 PWs)   bands (ev):

   -34.2731 -16.1547 -15.9190 -15.7933 -13.3332 -13.0378  -1.3879  -1.1775
     1.9730   2.1832   2.3398   2.4466

          k = 0.2474 0.6189 0.0618 (  6026 PWs)   bands (ev):

   -34.2701 -16.1673 -15.9517 -15.7973 -13.2152 -13.1108  -1.1950  -1.0044
     1.4560   1.9689   2.0483   2.8679

          k = 0.2474 0.6189 0.1855 (  6022 PWs)   bands (ev):

   -34.2700 -16.1608 -15.9495 -15.8004 -13.2515 -13.0857  -1.2532  -1.1049
     1.6512   2.0477   2.1624   2.6908

          k = 0.2474 0.6189 0.3091 (  5993 PWs)   bands (ev):

   -34.2698 -16.1535 -15.9479 -15.8033 -13.2866 -13.0615  -1.3240  -1.1832
     1.9343   2.1365   2.2730   2.4114

          k = 0.2474-0.3333 0.0618 (  6005 PWs)   bands (ev):

   -34.2788 -16.1540 -15.9017 -15.7500 -13.3077 -13.0977  -1.5454  -0.7236
     1.6297   2.0784   2.1810   2.8492

          k = 0.2474-0.3333 0.1855 (  6026 PWs)   bands (ev):

   -34.2788 -16.1424 -15.9113 -15.7495 -13.3729 -13.0349  -1.5523  -0.9234
     1.8326   2.1203   2.3070   2.7563

          k = 0.2474-0.3333 0.3091 (  6027 PWs)   bands (ev):

   -34.2787 -16.1338 -15.9187 -15.7492 -13.3941 -13.0170  -1.4915  -1.1561
     2.0425   2.2325   2.3716   2.5994

          k = 0.2474-0.1428 0.0618 (  6013 PWs)   bands (ev):

   -34.2908 -16.0384 -15.9408 -15.6741 -13.4931 -13.0173  -1.8716  -0.4804
     1.9394   2.1550   2.2925   2.9458

          k = 0.2474-0.1428 0.1855 (  6007 PWs)   bands (ev):

   -34.2907 -16.0308 -15.9535 -15.6738 -13.4913 -13.0125  -1.8035  -0.7662
     2.1227   2.1450   2.3736   2.9532

          k = 0.2474-0.1428 0.3091 (  6004 PWs)   bands (ev):

   -34.2906 -16.0424 -15.9491 -15.6736 -13.4307 -13.0687  -1.6000  -1.1353
     2.2219   2.3064   2.3811   2.8540

          k = 0.4123 0.7141 0.0618 (  6019 PWs)   bands (ev):

   -34.2712 -16.2442 -15.8397 -15.8014 -13.3104 -13.0434  -1.2141  -0.9936
     1.3493   2.0776   2.1707   2.8025

          k = 0.4123 0.7141 0.1855 (  6008 PWs)   bands (ev):

   -34.2711 -16.2361 -15.8387 -15.8047 -13.3614 -13.0013  -1.3241  -1.0624
     1.5794   2.1254   2.2584   2.6828

          k = 0.4123 0.7141 0.3091 (  6010 PWs)   bands (ev):

   -34.2711 -16.2280 -15.8375 -15.8080 -13.4031 -12.9687  -1.4223  -1.1287
     1.8798   2.1602   2.3101   2.5260

          k = 0.4123-0.2380 0.0618 (  6016 PWs)   bands (ev):

   -34.2756 -16.2781 -15.8282 -15.7044 -13.4217 -12.9907  -1.4227  -0.8306
     1.3309   2.2742   2.2908   2.7336

          k = 0.4123-0.2380 0.1855 (  6020 PWs)   bands (ev):

   -34.2755 -16.2667 -15.8342 -15.7040 -13.4999 -12.9155  -1.5362  -0.9417
     1.5855   2.2377   2.3473   2.7835

          k = 0.4123-0.2380 0.3091 (  6029 PWs)   bands (ev):

   -34.2755 -16.2591 -15.8383 -15.7037 -13.5286 -12.8919  -1.5697  -1.0841
     1.8845   2.2465   2.3056   2.7622

          k =-0.0825 0.3333-0.0618 (  6015 PWs)   bands (ev):

   -34.2853 -16.1128 -15.9138 -15.6992 -13.3293 -13.1350  -1.6849  -0.6052
     1.7741   2.1589   2.2639   2.7976

          k =-0.0825 0.3333-0.1855 (  6011 PWs)   bands (ev):

   -34.2852 -16.1099 -15.9199 -15.6988 -13.2777 -13.1855  -1.5901  -0.8984
     1.9797   2.1948   2.4152   2.6413

          k =-0.0825 0.3333-0.3091 (  6013 PWs)   bands (ev):

   -34.2851 -16.0979 -15.9330 -15.6984 -13.3650 -13.0952  -1.4517  -1.2349
     2.2007   2.2467   2.4163   2.6325

          k =-0.0825 0.5237-0.0618 (  6018 PWs)   bands (ev):

   -34.2733 -16.2892 -15.8117 -15.7419 -13.3632 -13.0281  -1.2472  -0.9673
     1.2897   2.1763   2.3278   2.6891

          k =-0.0825 0.5237-0.1855 (  6017 PWs)   bands (ev):

   -34.2732 -16.2810 -15.8150 -15.7415 -13.4179 -12.9801  -1.3337  -1.0764
     1.5535   2.1966   2.3664   2.6376

          k =-0.0825 0.5237-0.3091 (  6023 PWs)   bands (ev):

   -34.2731 -16.2710 -15.8193 -15.7410 -13.4826 -12.9213  -1.4745  -1.1254
     1.8750   2.1923   2.3179   2.6451

          k =-0.0825-0.4285-0.0618 (  6013 PWs)   bands (ev):

   -34.2777 -16.2224 -15.8568 -15.7230 -13.3878 -13.0250  -1.5112  -0.7580
     1.4635   2.2190   2.2266   2.8041

          k =-0.0825-0.4285-0.1855 (  6017 PWs)   bands (ev):

   -34.2776 -16.2104 -15.8651 -15.7224 -13.4630 -12.9516  -1.5758  -0.9151
     1.6951   2.1888   2.3423   2.8002

          k =-0.0825-0.4285-0.3091 (  6018 PWs)   bands (ev):

   -34.2775 -16.2036 -15.8702 -15.7221 -13.4800 -12.9387  -1.5544  -1.1069
     1.9631   2.2312   2.3381   2.7232

          k =-0.0825-0.2380-0.0618 (  6004 PWs)   bands (ev):

   -34.2940 -15.9989 -15.9403 -15.6746 -13.5268 -13.0108  -1.9389  -0.4218
     2.0833   2.1213   2.3115   2.9625

          k =-0.0825-0.2380-0.1855 (  6000 PWs)   bands (ev):

   -34.2939 -16.0146 -15.9332 -15.6742 -13.4808 -13.0492  -1.8279  -0.7364
     2.1212   2.2681   2.3781   2.9253

          k =-0.0825-0.2380-0.3091 (  6012 PWs)   bands (ev):

   -34.2938 -16.0350 -15.9222 -15.6739 -13.3873 -13.1362  -1.5798  -1.1522
     2.2112   2.3512   2.4639   2.8238

          k =-0.0825-0.0476-0.0618 (  6015 PWs)   bands (ev):

   -34.3060 -16.0741 -15.6980 -15.6436 -13.7878 -12.8968  -2.2019  -0.2031
     2.0711   2.1150   2.9501   3.0444

          k =-0.0825-0.0476-0.1855 (  6009 PWs)   bands (ev):

   -34.3059 -16.1011 -15.6947 -15.6434 -13.6597 -13.0090  -1.9958  -0.5708
     2.1185   2.1997   2.9393   2.9458

          k =-0.0825-0.0476-0.3091 (  6023 PWs)   bands (ev):

   -34.3058 -16.1265 -15.6920 -15.6432 -13.4568 -13.1968  -1.6115  -1.1021
     2.2148   2.2567   2.8724   2.8753

          k =-0.2474 0.6189-0.0618 (  6026 PWs)   bands (ev):

   -34.2701 -16.1667 -15.9522 -15.7972 -13.2288 -13.0971  -1.2097  -0.9920
     1.4547   1.9941   2.0241   2.8724

          k =-0.2474 0.6189-0.1855 (  6022 PWs)   bands (ev):

   -34.2700 -16.1595 -15.9507 -15.8002 -13.2689 -13.0679  -1.2842  -1.0780
     1.6461   2.0781   2.1347   2.7012

          k =-0.2474 0.6189-0.3091 (  5993 PWs)   bands (ev):

   -34.2698 -16.1529 -15.9486 -15.8032 -13.2935 -13.0545  -1.3404  -1.1688
     1.9238   2.1625   2.2485   2.4243

          k =-0.2474-0.3333-0.0618 (  6005 PWs)   bands (ev):

   -34.2788 -16.1572 -15.8991 -15.7502 -13.2227 -13.1838  -1.5172  -0.7383
     1.6352   2.0467   2.2145   2.8147

          k =-0.2474-0.3333-0.1855 (  6026 PWs)   bands (ev):

   -34.2788 -16.1493 -15.9057 -15.7500 -13.2902 -13.1197  -1.4818  -0.9690
     1.8614   2.0834   2.3532   2.6661

          k =-0.2474-0.3333-0.3091 (  6027 PWs)   bands (ev):

   -34.2787 -16.1375 -15.9156 -15.7494 -13.3638 -13.0482  -1.4280  -1.2080
     2.0826   2.1932   2.4453   2.4999

          k =-0.2474-0.1428-0.0618 (  6013 PWs)   bands (ev):

   -34.2908 -16.0530 -15.9286 -15.6741 -13.4328 -13.0795  -1.8300  -0.4924
     1.9161   2.2473   2.2681   2.8337

          k =-0.2474-0.1428-0.1855 (  6007 PWs)   bands (ev):

   -34.2907 -16.0614 -15.9276 -15.6739 -13.3353 -13.1725  -1.6982  -0.8176
     2.0480   2.3619   2.3773   2.6815

          k =-0.2474-0.1428-0.3091 (  6004 PWs)   bands (ev):

   -34.2906 -16.0575 -15.9363 -15.6736 -13.3372 -13.1642  -1.4821  -1.2281
     2.2212   2.3545   2.4270   2.7018

          k =-0.4123-0.2380-0.0618 (  6016 PWs)   bands (ev):

   -34.2756 -16.2819 -15.8265 -15.7044 -13.3598 -13.0547  -1.3346  -0.8891
     1.3291   2.2275   2.3828   2.6323

          k =-0.4123-0.2380-0.1855 (  6020 PWs)   bands (ev):

   -34.2755 -16.2745 -15.8305 -15.7041 -13.4069 -13.0125  -1.3412  -1.0822
     1.6030   2.2366   2.4135   2.5892

          k =-0.4123-0.2380-0.3091 (  6029 PWs)   bands (ev):

   -34.2755 -16.2631 -15.8363 -15.7037 -13.4906 -12.9320  -1.4721  -1.1563
     1.9288   2.2163   2.3176   2.6819

!    total energy              =    -140.10148714 Ry
     Harris-Foulkes estimate   =    -140.10148730 Ry
     estimated scf accuracy    <       0.00000022 Ry

     The total energy is the sum of the following terms:

     one-electron contribution =     -64.05091356 Ry
     hartree contribution      =      41.33250856 Ry
     xc contribution           =     -25.86625334 Ry
     ewald contribution        =     -91.51682881 Ry

     convergence has been achieved in  10 iterations

     Forces acting on atoms (Ry/au):

     atom    1 type  3   force =     0.00000000    0.00000000    0.00000000
     atom    2 type  2   force =     0.00000000   -0.00000000    0.06741662
     atom    3 type  2   force =    -0.00000000    0.00000000   -0.06741662
     atom    4 type  1   force =     0.00000000    0.00000000   -0.05206776
     atom    5 type  1   force =    -0.00000000    0.00000000    0.05206776

     Total force =     0.120466     Total SCF correction =     0.000104


     entering subroutine stress ...

          total   stress  (Ry/bohr**3)                   (kbar)     P=    7.29
   0.00023722  -0.00000000   0.00000000         34.90     -0.00      0.00
  -0.00000000   0.00023722  -0.00000000         -0.00     34.90     -0.00
  -0.00000000   0.00000000  -0.00032567         -0.00      0.00    -47.91


     number of scf cycles    =   2
     number of bfgs steps    =   1

     enthalpy old            =    -140.0979816173 Ry
     enthalpy new            =    -140.1014871434 Ry

     CASE: enthalpy_new < enthalpy_old

     new trust radius        =       0.0375808110 bohr
     new conv_thr            =       0.0000003506 Ry

     new unit-cell volume =    376.87936 a.u.^3 (    55.84776 Ang^3 )

CELL_PARAMETERS (alat=  6.78640000)
   1.016588972   0.000000000   0.000000000
  -0.508294486   0.880391875   0.000000000
   0.000000000   0.000000000   1.347294608

ATOMIC_POSITIONS (crystal)
Ca      -0.000000000  -0.000000000  -0.000000000
O        0.333333333   0.666666667   0.233123208
O        0.666666667   0.333333333   0.766876792
H        0.333333333   0.666666667   0.437921760
H        0.666666667   0.333333333   0.562078240



     Writing output data file CaOH2_ambient.save
     NEW-OLD atomic charge density approx. for the potential
     NEW k-points:
        k(    1) = (   0.0819735   0.1419822   0.0618523), wk =   0.0370370
        k(    2) = (   0.0819735   0.1419822   0.1855570), wk =   0.0370370
        k(    3) = (   0.0819735   0.1419822   0.3092617), wk =   0.0370370
        k(    4) = (   0.0819735   0.3312919   0.0618523), wk =   0.0370370
        k(    5) = (   0.0819735   0.3312919   0.1855570), wk =   0.0370370
        k(    6) = (   0.0819735   0.3312919   0.3092617), wk =   0.0370370
        k(    7) = (   0.0819735   0.5206015   0.0618523), wk =   0.0370370
        k(    8) = (   0.0819735   0.5206015   0.1855570), wk =   0.0370370
        k(    9) = (   0.0819735   0.5206015   0.3092617), wk =   0.0370370
        k(   10) = (   0.0819735  -0.4259467   0.0618523), wk =   0.0370370
        k(   11) = (   0.0819735  -0.4259467   0.1855570), wk =   0.0370370
        k(   12) = (   0.0819735  -0.4259467   0.3092617), wk =   0.0370370
        k(   13) = (   0.0819735  -0.2366370   0.0618523), wk =   0.0370370
        k(   14) = (   0.0819735  -0.2366370   0.1855570), wk =   0.0370370
        k(   15) = (   0.0819735  -0.2366370   0.3092617), wk =   0.0370370
        k(   16) = (   0.0819735  -0.0473274   0.0618523), wk =   0.0185185
        k(   17) = (   0.0819735  -0.0473274   0.1855570), wk =   0.0185185
        k(   18) = (   0.0819735  -0.0473274   0.3092617), wk =   0.0185185
        k(   19) = (   0.2459204   0.4259467   0.0618523), wk =   0.0370370
        k(   20) = (   0.2459204   0.4259467   0.1855570), wk =   0.0370370
        k(   21) = (   0.2459204   0.4259467   0.3092617), wk =   0.0370370
        k(   22) = (   0.2459204   0.6152563   0.0618523), wk =   0.0370370
        k(   23) = (   0.2459204   0.6152563   0.1855570), wk =   0.0370370
        k(   24) = (   0.2459204   0.6152563   0.3092617), wk =   0.0370370
        k(   25) = (   0.2459204  -0.3312919   0.0618523), wk =   0.0370370
        k(   26) = (   0.2459204  -0.3312919   0.1855570), wk =   0.0370370
        k(   27) = (   0.2459204  -0.3312919   0.3092617), wk =   0.0370370
        k(   28) = (   0.2459204  -0.1419822   0.0618523), wk =   0.0185185
        k(   29) = (   0.2459204  -0.1419822   0.1855570), wk =   0.0185185
        k(   30) = (   0.2459204  -0.1419822   0.3092617), wk =   0.0185185
        k(   31) = (   0.4098674   0.7099111   0.0618523), wk =   0.0370370
        k(   32) = (   0.4098674   0.7099111   0.1855570), wk =   0.0370370
        k(   33) = (   0.4098674   0.7099111   0.3092617), wk =   0.0370370
        k(   34) = (   0.4098674  -0.2366370   0.0618523), wk =   0.0185185
        k(   35) = (   0.4098674  -0.2366370   0.1855570), wk =   0.0185185
        k(   36) = (   0.4098674  -0.2366370   0.3092617), wk =   0.0185185
        k(   37) = (  -0.0819735   0.3312919  -0.0618523), wk =   0.0370370
        k(   38) = (  -0.0819735   0.3312919  -0.1855570), wk =   0.0370370
        k(   39) = (  -0.0819735   0.3312919  -0.3092617), wk =   0.0370370
        k(   40) = (  -0.0819735   0.5206015  -0.0618523), wk =   0.0370370
        k(   41) = (  -0.0819735   0.5206015  -0.1855570), wk =   0.0370370
        k(   42) = (  -0.0819735   0.5206015  -0.3092617), wk =   0.0370370
        k(   43) = (  -0.0819735  -0.4259467  -0.0618523), wk =   0.0370370
        k(   44) = (  -0.0819735  -0.4259467  -0.1855570), wk =   0.0370370
        k(   45) = (  -0.0819735  -0.4259467  -0.3092617), wk =   0.0370370
        k(   46) = (  -0.0819735  -0.2366370  -0.0618523), wk =   0.0370370
        k(   47) = (  -0.0819735  -0.2366370  -0.1855570), wk =   0.0370370
        k(   48) = (  -0.0819735  -0.2366370  -0.3092617), wk =   0.0370370
        k(   49) = (  -0.0819735  -0.0473274  -0.0618523), wk =   0.0185185
        k(   50) = (  -0.0819735  -0.0473274  -0.1855570), wk =   0.0185185
        k(   51) = (  -0.0819735  -0.0473274  -0.3092617), wk =   0.0185185
        k(   52) = (  -0.2459204   0.6152563  -0.0618523), wk =   0.0370370
        k(   53) = (  -0.2459204   0.6152563  -0.1855570), wk =   0.0370370
        k(   54) = (  -0.2459204   0.6152563  -0.3092617), wk =   0.0370370
        k(   55) = (  -0.2459204  -0.3312919  -0.0618523), wk =   0.0370370
        k(   56) = (  -0.2459204  -0.3312919  -0.1855570), wk =   0.0370370
        k(   57) = (  -0.2459204  -0.3312919  -0.3092617), wk =   0.0370370
        k(   58) = (  -0.2459204  -0.1419822  -0.0618523), wk =   0.0185185
        k(   59) = (  -0.2459204  -0.1419822  -0.1855570), wk =   0.0185185
        k(   60) = (  -0.2459204  -0.1419822  -0.3092617), wk =   0.0185185
        k(   61) = (  -0.4098674  -0.2366370  -0.0618523), wk =   0.0185185
        k(   62) = (  -0.4098674  -0.2366370  -0.1855570), wk =   0.0185185
        k(   63) = (  -0.4098674  -0.2366370  -0.3092617), wk =   0.0185185
     extrapolated charge   24.24911, renormalised to   24.00000

     total cpu time spent up to now is      783.9 secs

     per-process dynamical memory:    24.8 Mb

     Self-consistent Calculation

     iteration #  1     ecut=   100.00 Ry     beta=0.30
     Davidson diagonalization with overlap
     ethr =  1.00E-06,  avg # of iterations =  5.1

     total cpu time spent up to now is      826.4 secs

     total energy              =    -140.09945773 Ry
     Harris-Foulkes estimate   =    -139.60068846 Ry
     estimated scf accuracy    <       0.01123637 Ry

     iteration #  2     ecut=   100.00 Ry     beta=0.30
     Davidson diagonalization with overlap
     ethr =  4.68E-05,  avg # of iterations =  3.0

     total cpu time spent up to now is      854.8 secs

     total energy              =    -140.10764791 Ry
     Harris-Foulkes estimate   =    -140.10827663 Ry
     estimated scf accuracy    <       0.00452198 Ry

     iteration #  3     ecut=   100.00 Ry     beta=0.30
     Davidson diagonalization with overlap
     ethr =  1.88E-05,  avg # of iterations =  1.0

     total cpu time spent up to now is      872.1 secs

     total energy              =    -140.10609310 Ry
     Harris-Foulkes estimate   =    -140.10770579 Ry
     estimated scf accuracy    <       0.00269537 Ry

     iteration #  4     ecut=   100.00 Ry     beta=0.30
     Davidson diagonalization with overlap
     ethr =  1.12E-05,  avg # of iterations =  2.0

     total cpu time spent up to now is      894.4 secs

     total energy              =    -140.10693649 Ry
     Harris-Foulkes estimate   =    -140.10715368 Ry
     estimated scf accuracy    <       0.00078323 Ry

     iteration #  5     ecut=   100.00 Ry     beta=0.30
     Davidson diagonalization with overlap
     ethr =  3.26E-06,  avg # of iterations =  2.0

     total cpu time spent up to now is      913.2 secs

     total energy              =    -140.10689346 Ry
     Harris-Foulkes estimate   =    -140.10698307 Ry
     estimated scf accuracy    <       0.00018062 Ry

     iteration #  6     ecut=   100.00 Ry     beta=0.30
     Davidson diagonalization with overlap
     ethr =  7.53E-07,  avg # of iterations =  2.0

     total cpu time spent up to now is      935.8 secs

     total energy              =    -140.10694049 Ry
     Harris-Foulkes estimate   =    -140.10694007 Ry
     estimated scf accuracy    <       0.00001029 Ry

     iteration #  7     ecut=   100.00 Ry     beta=0.30
     Davidson diagonalization with overlap
     ethr =  4.29E-08,  avg # of iterations =  2.0

     total cpu time spent up to now is      958.1 secs

     total energy              =    -140.10693450 Ry
     Harris-Foulkes estimate   =    -140.10694231 Ry
     estimated scf accuracy    <       0.00001563 Ry

     iteration #  8     ecut=   100.00 Ry     beta=0.30
     Davidson diagonalization with overlap
     ethr =  4.29E-08,  avg # of iterations =  2.0

     total cpu time spent up to now is      980.4 secs

     End of self-consistent calculation

          k = 0.0820 0.1420 0.0619 (  6010 PWs)   bands (ev):

   -34.5150 -16.2299 -15.9941 -15.8663 -13.9324 -13.2219  -2.2101  -0.5106
     2.0061   2.0710   2.5678   2.9175

          k = 0.0820 0.1420 0.1856 (  6001 PWs)   bands (ev):

   -34.5149 -16.2538 -15.9873 -15.8661 -13.8300 -13.3114  -2.0478  -0.8356
     2.0423   2.1874   2.5755   2.8541

          k = 0.0820 0.1420 0.3093 (  6026 PWs)   bands (ev):

   -34.5148 -16.2761 -15.9816 -15.8658 -13.6601 -13.4691  -1.7377  -1.2919
     2.1464   2.2417   2.5901   2.7583

          k = 0.0820 0.3313 0.0619 (  6015 PWs)   bands (ev):

   -34.5003 -16.2753 -16.1141 -15.9075 -13.6828 -13.3266  -1.8538  -0.7963
     1.6934   2.0730   2.1583   2.7929

          k = 0.0820 0.3313 0.1856 (  6011 PWs)   bands (ev):

   -34.5001 -16.2628 -16.1277 -15.9071 -13.7179 -13.2886  -1.8289  -1.0239
     1.8762   2.0670   2.2659   2.7750

          k = 0.0820 0.3313 0.3093 (  6013 PWs)   bands (ev):

   -34.5000 -16.2597 -16.1340 -15.9067 -13.7002 -13.3051  -1.6960  -1.3149
     2.0576   2.1605   2.2810   2.6746

          k = 0.0820 0.5206 0.0619 (  6018 PWs)   bands (ev):

   -34.4894 -16.4441 -16.0160 -15.9462 -13.6439 -13.2991  -1.4561  -1.1086
     1.2210   2.1190   2.1863   2.6469

          k = 0.0820 0.5206 0.1856 (  6017 PWs)   bands (ev):

   -34.4893 -16.4343 -16.0203 -15.9456 -13.7148 -13.2342  -1.5773  -1.1772
     1.4636   2.1275   2.2141   2.6371

          k = 0.0820 0.5206 0.3093 (  6023 PWs)   bands (ev):

   -34.4892 -16.4261 -16.0235 -15.9453 -13.7540 -13.2018  -1.6486  -1.2683
     1.7656   2.1202   2.1856   2.5985

          k = 0.0820-0.4259 0.0619 (  6013 PWs)   bands (ev):

   -34.4934 -16.3889 -16.0530 -15.9296 -13.5535 -13.4122  -1.5790  -0.9952
     1.3902   2.0759   2.2223   2.6283

          k = 0.0820-0.4259 0.1856 (  6017 PWs)   bands (ev):

   -34.4933 -16.3826 -16.0576 -15.9292 -13.5938 -13.3758  -1.5343  -1.2181
     1.6357   2.0785   2.3419   2.4922

          k = 0.0820-0.4259 0.3093 (  6018 PWs)   bands (ev):

   -34.4932 -16.3710 -16.0655 -15.9286 -13.6900 -13.2818  -1.5530  -1.3854
     1.9365   2.0793   2.2721   2.5286

          k = 0.0820-0.2366 0.0619 (  6004 PWs)   bands (ev):

   -34.5082 -16.1950 -16.1175 -15.8849 -13.7724 -13.3058  -2.0357  -0.6440
     1.9519   2.1169   2.2347   2.8101

          k = 0.0820-0.2366 0.1856 (  6000 PWs)   bands (ev):

   -34.5080 -16.2151 -16.1069 -15.8847 -13.6946 -13.3764  -1.9083  -0.9477
     2.0096   2.2606   2.3226   2.6934

          k = 0.0820-0.2366 0.3093 (  6012 PWs)   bands (ev):

   -34.5079 -16.2273 -16.1032 -15.8843 -13.6127 -13.4507  -1.6667  -1.3563
     2.1322   2.2645   2.4376   2.6270

          k = 0.0820-0.0473 0.0619 (  6015 PWs)   bands (ev):

   -34.5190 -16.2561 -15.9051 -15.8564 -14.0320 -13.1767  -2.3032  -0.4353
     2.0172   2.0399   2.8098   2.9840

          k = 0.0820-0.0473 0.1856 (  6009 PWs)   bands (ev):

   -34.5189 -16.2823 -15.9021 -15.8562 -13.9101 -13.2817  -2.1160  -0.7715
     2.0587   2.1375   2.7452   2.9326

          k = 0.0820-0.0473 0.3093 (  6023 PWs)   bands (ev):

   -34.5188 -16.3076 -15.8995 -15.8560 -13.7089 -13.4669  -1.7677  -1.2536
     2.1509   2.2089   2.7027   2.8200

          k = 0.2459 0.4259 0.0619 (  6021 PWs)   bands (ev):

   -34.4894 -16.3379 -16.1032 -15.9941 -13.4947 -13.4190  -1.5002  -1.0607
     1.4402   1.9057   2.0394   2.7576

          k = 0.2459 0.4259 0.1856 (  6009 PWs)   bands (ev):

   -34.4893 -16.3293 -16.1060 -15.9954 -13.5631 -13.3580  -1.5223  -1.2022
     1.6389   1.9741   2.1429   2.6036

          k = 0.2459 0.4259 0.3093 (  6017 PWs)   bands (ev):

   -34.4892 -16.3205 -16.1092 -15.9966 -13.6046 -13.3241  -1.5221  -1.3526
     1.8855   2.0854   2.2426   2.3492

          k = 0.2459 0.6153 0.0619 (  6026 PWs)   bands (ev):

   -34.4865 -16.3333 -16.1362 -16.0020 -13.4863 -13.4012  -1.3542  -1.1840
     1.3748   1.8912   1.9675   2.7711

          k = 0.2459 0.6153 0.1856 (  6022 PWs)   bands (ev):

   -34.4864 -16.3269 -16.1341 -16.0050 -13.5240 -13.3742  -1.4050  -1.2784
     1.5672   1.9609   2.0727   2.5932

          k = 0.2459 0.6153 0.3093 (  5993 PWs)   bands (ev):

   -34.4863 -16.3198 -16.1326 -16.0078 -13.5589 -13.3498  -1.4686  -1.3523
     1.8546   2.0389   2.1731   2.3109

          k = 0.2459-0.3313 0.0619 (  6005 PWs)   bands (ev):

   -34.4944 -16.3207 -16.0960 -15.9546 -13.5827 -13.3757  -1.6795  -0.9240
     1.5503   1.9910   2.1031   2.7574

          k = 0.2459-0.3313 0.1856 (  6026 PWs)   bands (ev):

   -34.4944 -16.3094 -16.1055 -15.9540 -13.6436 -13.3171  -1.6833  -1.1090
     1.7443   2.0306   2.2159   2.6642

          k = 0.2459-0.3313 0.3093 (  6027 PWs)   bands (ev):

   -34.4943 -16.3010 -16.1127 -15.9537 -13.6632 -13.3007  -1.6184  -1.3330
     1.9494   2.1386   2.2712   2.5063

          k = 0.2459-0.1420 0.0619 (  6013 PWs)   bands (ev):

   -34.5053 -16.2165 -16.1315 -15.8846 -13.7603 -13.2925  -1.9868  -0.6956
     1.8578   2.0765   2.2109   2.8502

          k = 0.2459-0.1420 0.1856 (  6007 PWs)   bands (ev):

   -34.5051 -16.2104 -16.1426 -15.8843 -13.7573 -13.2891  -1.9221  -0.9596
     2.0321   2.0671   2.2808   2.8570

          k = 0.2459-0.1420 0.3093 (  6004 PWs)   bands (ev):

   -34.5050 -16.2236 -16.1367 -15.8840 -13.6989 -13.3427  -1.7272  -1.3082
     2.1463   2.2011   2.2906   2.7555

          k = 0.4099 0.7099 0.0619 (  6019 PWs)   bands (ev):

   -34.4876 -16.4042 -16.0345 -16.0059 -13.5703 -13.3411  -1.3693  -1.1765
     1.2756   1.9998   2.0772   2.7114

          k = 0.4099 0.7099 0.1856 (  6008 PWs)   bands (ev):

   -34.4874 -16.3963 -16.0334 -16.0090 -13.6230 -13.2972  -1.4687  -1.2405
     1.4977   2.0366   2.1597   2.5920

          k = 0.4099 0.7099 0.3093 (  6010 PWs)   bands (ev):

   -34.4874 -16.3883 -16.0323 -16.0123 -13.6647 -13.2643  -1.5585  -1.3023
     1.7962   2.0621   2.1959   2.4407

          k = 0.4099-0.2366 0.0619 (  6016 PWs)   bands (ev):

   -34.4915 -16.4354 -16.0303 -15.9125 -13.6735 -13.2891  -1.5637  -1.0242
     1.2615   2.1860   2.1945   2.6502

          k = 0.4099-0.2366 0.1856 (  6020 PWs)   bands (ev):

   -34.4914 -16.4242 -16.0361 -15.9122 -13.7525 -13.2136  -1.6665  -1.1269
     1.5037   2.1440   2.2431   2.6975

          k = 0.4099-0.2366 0.3093 (  6029 PWs)   bands (ev):

   -34.4914 -16.4168 -16.0401 -15.9118 -13.7809 -13.1904  -1.6935  -1.2622
     1.7951   2.1534   2.1879   2.6757

          k =-0.0820 0.3313-0.0619 (  6015 PWs)   bands (ev):

   -34.5003 -16.2837 -16.1076 -15.9076 -13.6070 -13.4039  -1.8114  -0.8127
     1.6915   2.0810   2.1828   2.7051

          k =-0.0820 0.3313-0.1856 (  6011 PWs)   bands (ev):

   -34.5001 -16.2814 -16.1131 -15.9072 -13.5617 -13.4479  -1.7206  -1.0843
     1.8850   2.1107   2.3358   2.5440

          k =-0.0820 0.3313-0.3093 (  6013 PWs)   bands (ev):

   -34.5000 -16.2701 -16.1256 -15.9068 -13.6362 -13.3706  -1.5722  -1.4165
     2.1030   2.1495   2.3378   2.5315

          k =-0.0820 0.5206-0.0619 (  6018 PWs)   bands (ev):

   -34.4894 -16.4459 -16.0150 -15.9464 -13.6130 -13.3308  -1.3986  -1.1533
     1.2199   2.0942   2.2260   2.6079

          k =-0.0820 0.5206-0.1856 (  6017 PWs)   bands (ev):

   -34.4893 -16.4378 -16.0182 -15.9460 -13.6704 -13.2801  -1.4721  -1.2584
     1.4715   2.1033   2.2612   2.5576

          k =-0.0820 0.5206-0.3093 (  6023 PWs)   bands (ev):

   -34.4892 -16.4280 -16.0225 -15.9454 -13.7359 -13.2206  -1.6029  -1.3028
     1.7880   2.0845   2.2116   2.5620

          k =-0.0820-0.4259-0.0619 (  6013 PWs)   bands (ev):

   -34.4934 -16.3839 -16.0560 -15.9294 -13.6484 -13.3155  -1.6470  -0.9563
     1.3904   2.1278   2.1417   2.7159

          k =-0.0820-0.4259-0.1856 (  6017 PWs)   bands (ev):

   -34.4933 -16.3722 -16.0641 -15.9288 -13.7226 -13.2435  -1.7044  -1.1015
     1.6108   2.0990   2.2408   2.7111

          k =-0.0820-0.4259-0.3093 (  6018 PWs)   bands (ev):

   -34.4932 -16.3656 -16.0690 -15.9285 -13.7389 -13.2312  -1.6790  -1.2844
     1.8715   2.1422   2.2231   2.6346

          k =-0.0820-0.2366-0.0619 (  6004 PWs)   bands (ev):

   -34.5082 -16.1861 -16.1254 -15.8849 -13.7930 -13.2846  -2.0510  -0.6404
     2.0047   2.0414   2.2308   2.8654

          k =-0.0820-0.2366-0.1856 (  6000 PWs)   bands (ev):

   -34.5080 -16.2021 -16.1179 -15.8846 -13.7484 -13.3214  -1.9470  -0.9306
     2.0446   2.1832   2.2849   2.8269

          k =-0.0820-0.2366-0.3093 (  6012 PWs)   bands (ev):

   -34.5079 -16.2219 -16.1075 -15.8843 -13.6604 -13.4024  -1.7121  -1.3210
     2.1367   2.2583   2.3706   2.7206

          k =-0.0820-0.0473-0.0619 (  6015 PWs)   bands (ev):

   -34.5190 -16.2564 -15.9050 -15.8565 -14.0301 -13.1787  -2.3014  -0.4354
     2.0052   2.0517   2.8494   2.9390

          k =-0.0820-0.0473-0.1856 (  6009 PWs)   bands (ev):

   -34.5189 -16.2829 -15.9019 -15.8563 -13.9048 -13.2870  -2.1113  -0.7729
     2.0535   2.1420   2.8284   2.8407

          k =-0.0820-0.0473-0.3093 (  6023 PWs)   bands (ev):

   -34.5188 -16.3079 -15.8994 -15.8561 -13.7020 -13.4738  -1.7627  -1.2571
     2.1535   2.2054   2.7551   2.7644

          k =-0.2459 0.6153-0.0619 (  6026 PWs)   bands (ev):

   -34.4865 -16.3327 -16.1367 -16.0019 -13.5010 -13.3863  -1.3681  -1.1722
     1.3739   1.9128   1.9465   2.7754

          k =-0.2459 0.6153-0.1856 (  6022 PWs)   bands (ev):

   -34.4864 -16.3257 -16.1353 -16.0048 -13.5415 -13.3563  -1.4354  -1.2518
     1.5625   1.9898   2.0459   2.6034

          k =-0.2459 0.6153-0.3093 (  5993 PWs)   bands (ev):

   -34.4863 -16.3192 -16.1332 -16.0077 -13.5657 -13.3428  -1.4853  -1.3374
     1.8430   2.0701   2.1433   2.3246

          k =-0.2459-0.3313-0.0619 (  6005 PWs)   bands (ev):

   -34.4944 -16.3239 -16.0935 -15.9548 -13.5100 -13.4491  -1.6534  -0.9376
     1.5541   1.9661   2.1322   2.7236

          k =-0.2459-0.3313-0.1856 (  6026 PWs)   bands (ev):

   -34.4944 -16.3163 -16.0999 -15.9545 -13.5652 -13.3971  -1.6169  -1.1523
     1.7692   1.9974   2.2639   2.5751

          k =-0.2459-0.3313-0.3093 (  6027 PWs)   bands (ev):

   -34.4943 -16.3048 -16.1096 -15.9539 -13.6342 -13.3304  -1.5509  -1.3898
     1.9902   2.0922   2.3590   2.4002

          k =-0.2459-0.1420-0.0619 (  6013 PWs)   bands (ev):

   -34.5053 -16.2310 -16.1194 -15.8846 -13.7043 -13.3500  -1.9485  -0.7065
     1.8323   2.1707   2.1918   2.7363

          k =-0.2459-0.1420-0.1856 (  6007 PWs)   bands (ev):

   -34.5051 -16.2403 -16.1175 -15.8843 -13.6158 -13.4335  -1.8247  -1.0068
     1.9575   2.2742   2.3111   2.5739

          k =-0.2459-0.1420-0.3093 (  6004 PWs)   bands (ev):

   -34.5050 -16.2379 -16.1248 -15.8841 -13.6140 -13.4291  -1.6122  -1.3997
     2.1241   2.2872   2.3305   2.5952

          k =-0.4099-0.2366-0.0619 (  6016 PWs)   bands (ev):

   -34.4915 -16.4392 -16.0286 -15.9125 -13.6073 -13.3569  -1.4815  -1.0790
     1.2588   2.1434   2.2804   2.5551

          k =-0.4099-0.2366-0.1856 (  6020 PWs)   bands (ev):

   -34.4914 -16.4319 -16.0325 -15.9122 -13.6577 -13.3115  -1.4772  -1.2657
     1.5188   2.1410   2.3085   2.5146

          k =-0.4099-0.2366-0.3093 (  6029 PWs)   bands (ev):

   -34.4914 -16.4208 -16.0381 -15.9119 -13.7429 -13.2299  -1.5962  -1.3360
     1.8394   2.1016   2.2221   2.5978

!    total energy              =    -140.10693744 Ry
     Harris-Foulkes estimate   =    -140.10693747 Ry
     estimated scf accuracy    <       0.00000018 Ry

     The total energy is the sum of the following terms:

     one-electron contribution =     -64.24063207 Ry
     hartree contribution      =      41.29481752 Ry
     xc contribution           =     -25.89598073 Ry
     ewald contribution        =     -91.26514215 Ry

     convergence has been achieved in   8 iterations

     Forces acting on atoms (Ry/au):

     atom    1 type  3   force =     0.00000000   -0.00000000    0.00000000
     atom    2 type  2   force =     0.00000000   -0.00000000    0.01673457
     atom    3 type  2   force =     0.00000000   -0.00000000   -0.01673457
     atom    4 type  1   force =     0.00000000   -0.00000000   -0.00976485
     atom    5 type  1   force =     0.00000000   -0.00000000    0.00976485

     Total force =     0.027401     Total SCF correction =     0.000432


     entering subroutine stress ...

          total   stress  (Ry/bohr**3)                   (kbar)     P=   12.55
   0.00010909  -0.00000000  -0.00000000         16.05     -0.00     -0.00
  -0.00000000   0.00010909   0.00000000         -0.00     16.05      0.00
  -0.00000000   0.00000000   0.00003765         -0.00      0.00      5.54


     number of scf cycles    =   3
     number of bfgs steps    =   2

     enthalpy old            =    -140.1014871434 Ry
     enthalpy new            =    -140.1069374365 Ry

     CASE: enthalpy_new < enthalpy_old

     new trust radius        =       0.0191651111 bohr
     new conv_thr            =       0.0000001673 Ry

     new unit-cell volume =    382.26053 a.u.^3 (    56.64517 Ang^3 )

CELL_PARAMETERS (alat=  6.78640000)
   1.021606913   0.000000000   0.000000000
  -0.510803457   0.884737540   0.000000000
   0.000000000   0.000000000   1.353140261

ATOMIC_POSITIONS (crystal)
Ca      -0.000000000  -0.000000000  -0.000000000
O        0.333333333   0.666666667   0.235087143
O        0.666666667   0.333333333   0.764912857
H        0.333333333   0.666666667   0.437303739
H        0.666666667   0.333333333   0.562696261



     Writing output data file CaOH2_ambient.save
     NEW-OLD atomic charge density approx. for the potential
     NEW k-points:
        k(    1) = (   0.0815708   0.1412848   0.0615851), wk =   0.0370370
        k(    2) = (   0.0815708   0.1412848   0.1847554), wk =   0.0370370
        k(    3) = (   0.0815708   0.1412848   0.3079257), wk =   0.0370370
        k(    4) = (   0.0815708   0.3296646   0.0615851), wk =   0.0370370
        k(    5) = (   0.0815708   0.3296646   0.1847554), wk =   0.0370370
        k(    6) = (   0.0815708   0.3296646   0.3079257), wk =   0.0370370
        k(    7) = (   0.0815708   0.5180444   0.0615851), wk =   0.0370370
        k(    8) = (   0.0815708   0.5180444   0.1847554), wk =   0.0370370
        k(    9) = (   0.0815708   0.5180444   0.3079257), wk =   0.0370370
        k(   10) = (   0.0815708  -0.4238545   0.0615851), wk =   0.0370370
        k(   11) = (   0.0815708  -0.4238545   0.1847554), wk =   0.0370370
        k(   12) = (   0.0815708  -0.4238545   0.3079257), wk =   0.0370370
        k(   13) = (   0.0815708  -0.2354747   0.0615851), wk =   0.0370370
        k(   14) = (   0.0815708  -0.2354747   0.1847554), wk =   0.0370370
        k(   15) = (   0.0815708  -0.2354747   0.3079257), wk =   0.0370370
        k(   16) = (   0.0815708  -0.0470949   0.0615851), wk =   0.0185185
        k(   17) = (   0.0815708  -0.0470949   0.1847554), wk =   0.0185185
        k(   18) = (   0.0815708  -0.0470949   0.3079257), wk =   0.0185185
        k(   19) = (   0.2447125   0.4238545   0.0615851), wk =   0.0370370
        k(   20) = (   0.2447125   0.4238545   0.1847554), wk =   0.0370370
        k(   21) = (   0.2447125   0.4238545   0.3079257), wk =   0.0370370
        k(   22) = (   0.2447125   0.6122343   0.0615851), wk =   0.0370370
        k(   23) = (   0.2447125   0.6122343   0.1847554), wk =   0.0370370
        k(   24) = (   0.2447125   0.6122343   0.3079257), wk =   0.0370370
        k(   25) = (   0.2447125  -0.3296646   0.0615851), wk =   0.0370370
        k(   26) = (   0.2447125  -0.3296646   0.1847554), wk =   0.0370370
        k(   27) = (   0.2447125  -0.3296646   0.3079257), wk =   0.0370370
        k(   28) = (   0.2447125  -0.1412848   0.0615851), wk =   0.0185185
        k(   29) = (   0.2447125  -0.1412848   0.1847554), wk =   0.0185185
        k(   30) = (   0.2447125  -0.1412848   0.3079257), wk =   0.0185185
        k(   31) = (   0.4078542   0.7064242   0.0615851), wk =   0.0370370
        k(   32) = (   0.4078542   0.7064242   0.1847554), wk =   0.0370370
        k(   33) = (   0.4078542   0.7064242   0.3079257), wk =   0.0370370
        k(   34) = (   0.4078542  -0.2354747   0.0615851), wk =   0.0185185
        k(   35) = (   0.4078542  -0.2354747   0.1847554), wk =   0.0185185
        k(   36) = (   0.4078542  -0.2354747   0.3079257), wk =   0.0185185
        k(   37) = (  -0.0815708   0.3296646  -0.0615851), wk =   0.0370370
        k(   38) = (  -0.0815708   0.3296646  -0.1847554), wk =   0.0370370
        k(   39) = (  -0.0815708   0.3296646  -0.3079257), wk =   0.0370370
        k(   40) = (  -0.0815708   0.5180444  -0.0615851), wk =   0.0370370
        k(   41) = (  -0.0815708   0.5180444  -0.1847554), wk =   0.0370370
        k(   42) = (  -0.0815708   0.5180444  -0.3079257), wk =   0.0370370
        k(   43) = (  -0.0815708  -0.4238545  -0.0615851), wk =   0.0370370
        k(   44) = (  -0.0815708  -0.4238545  -0.1847554), wk =   0.0370370
        k(   45) = (  -0.0815708  -0.4238545  -0.3079257), wk =   0.0370370
        k(   46) = (  -0.0815708  -0.2354747  -0.0615851), wk =   0.0370370
        k(   47) = (  -0.0815708  -0.2354747  -0.1847554), wk =   0.0370370
        k(   48) = (  -0.0815708  -0.2354747  -0.3079257), wk =   0.0370370
        k(   49) = (  -0.0815708  -0.0470949  -0.0615851), wk =   0.0185185
        k(   50) = (  -0.0815708  -0.0470949  -0.1847554), wk =   0.0185185
        k(   51) = (  -0.0815708  -0.0470949  -0.3079257), wk =   0.0185185
        k(   52) = (  -0.2447125   0.6122343  -0.0615851), wk =   0.0370370
        k(   53) = (  -0.2447125   0.6122343  -0.1847554), wk =   0.0370370
        k(   54) = (  -0.2447125   0.6122343  -0.3079257), wk =   0.0370370
        k(   55) = (  -0.2447125  -0.3296646  -0.0615851), wk =   0.0370370
        k(   56) = (  -0.2447125  -0.3296646  -0.1847554), wk =   0.0370370
        k(   57) = (  -0.2447125  -0.3296646  -0.3079257), wk =   0.0370370
        k(   58) = (  -0.2447125  -0.1412848  -0.0615851), wk =   0.0185185
        k(   59) = (  -0.2447125  -0.1412848  -0.1847554), wk =   0.0185185
        k(   60) = (  -0.2447125  -0.1412848  -0.3079257), wk =   0.0185185
        k(   61) = (  -0.4078542  -0.2354747  -0.0615851), wk =   0.0185185
        k(   62) = (  -0.4078542  -0.2354747  -0.1847554), wk =   0.0185185
        k(   63) = (  -0.4078542  -0.2354747  -0.3079257), wk =   0.0185185
     extrapolated charge   24.30970, renormalised to   24.00000

     total cpu time spent up to now is     1107.7 secs

     per-process dynamical memory:    24.8 Mb

     Self-consistent Calculation

     iteration #  1     ecut=   100.00 Ry     beta=0.30
     Davidson diagonalization with overlap
     ethr =  1.00E-06,  avg # of iterations =  5.0

     total cpu time spent up to now is     1144.9 secs

     total energy              =    -140.09432914 Ry
     Harris-Foulkes estimate   =    -139.47508813 Ry
     estimated scf accuracy    <       0.01904921 Ry

     iteration #  2     ecut=   100.00 Ry     beta=0.30
     Davidson diagonalization with overlap
     ethr =  7.94E-05,  avg # of iterations =  3.0

     total cpu time spent up to now is     1172.2 secs

     total energy              =    -140.10814602 Ry
     Harris-Foulkes estimate   =    -140.10881075 Ry
     estimated scf accuracy    <       0.00435318 Ry

     iteration #  3     ecut=   100.00 Ry     beta=0.30
     Davidson diagonalization with overlap
     ethr =  1.81E-05,  avg # of iterations =  1.0

     total cpu time spent up to now is     1188.4 secs

     total energy              =    -140.10697707 Ry
     Harris-Foulkes estimate   =    -140.10822295 Ry
     estimated scf accuracy    <       0.00237208 Ry

     iteration #  4     ecut=   100.00 Ry     beta=0.30
     Davidson diagonalization with overlap
     ethr =  9.88E-06,  avg # of iterations =  2.0

     total cpu time spent up to now is     1211.0 secs

     total energy              =    -140.10759632 Ry
     Harris-Foulkes estimate   =    -140.10767183 Ry
     estimated scf accuracy    <       0.00018583 Ry

     iteration #  5     ecut=   100.00 Ry     beta=0.30
     Davidson diagonalization with overlap
     ethr =  7.74E-07,  avg # of iterations =  2.0

     total cpu time spent up to now is     1233.8 secs

     total energy              =    -140.10762250 Ry
     Harris-Foulkes estimate   =    -140.10762823 Ry
     estimated scf accuracy    <       0.00001384 Ry

     iteration #  6     ecut=   100.00 Ry     beta=0.30
     Davidson diagonalization with overlap
     ethr =  5.77E-08,  avg # of iterations =  2.0

     total cpu time spent up to now is     1255.5 secs

     total energy              =    -140.10762409 Ry
     Harris-Foulkes estimate   =    -140.10762404 Ry
     estimated scf accuracy    <       0.00000079 Ry

     iteration #  7     ecut=   100.00 Ry     beta=0.30
     Davidson diagonalization with overlap
     ethr =  3.29E-09,  avg # of iterations =  2.0

     total cpu time spent up to now is     1275.2 secs

     total energy              =    -140.10762374 Ry
     Harris-Foulkes estimate   =    -140.10762415 Ry
     estimated scf accuracy    <       0.00000099 Ry

     iteration #  8     ecut=   100.00 Ry     beta=0.30
     Davidson diagonalization with overlap
     ethr =  3.29E-09,  avg # of iterations =  2.0

     total cpu time spent up to now is     1298.0 secs

     End of self-consistent calculation

          k = 0.0816 0.1413 0.0616 (  6010 PWs)   bands (ev):

   -34.7251 -16.4119 -16.1898 -16.0759 -14.0782 -13.3941  -2.3003  -0.6631
     1.9192   1.9847   2.4586   2.8026

          k = 0.0816 0.1413 0.1848 (  6001 PWs)   bands (ev):

   -34.7249 -16.4334 -16.1840 -16.0756 -13.9803 -13.4799  -2.1444  -0.9737
     1.9552   2.1006   2.4626   2.7391

          k = 0.0816 0.1413 0.3079 (  6026 PWs)   bands (ev):

   -34.7249 -16.4536 -16.1792 -16.0754 -13.8188 -13.6301  -1.8486  -1.4095
     2.0590   2.1546   2.4757   2.6424

          k = 0.0816 0.3297 0.0616 (  6015 PWs)   bands (ev):

   -34.7115 -16.4479 -16.3054 -16.1142 -13.8431 -13.4955  -1.9558  -0.9380
     1.5992   1.9761   2.0608   2.6830

          k = 0.0816 0.3297 0.1848 (  6011 PWs)   bands (ev):

   -34.7114 -16.4369 -16.3176 -16.1138 -13.8742 -13.4617  -1.9298  -1.1557
     1.7757   1.9724   2.1595   2.6648

          k = 0.0816 0.3297 0.3079 (  6013 PWs)   bands (ev):

   -34.7113 -16.4344 -16.3231 -16.1135 -13.8559 -13.4787  -1.7989  -1.4374
     1.9539   2.0617   2.1727   2.5651

          k = 0.0816 0.5180 0.0616 (  6018 PWs)   bands (ev):

   -34.7015 -16.6046 -16.2172 -16.1497 -13.7905 -13.4837  -1.5724  -1.2395
     1.1361   2.0169   2.0801   2.5423

          k = 0.0816 0.5180 0.1848 (  6017 PWs)   bands (ev):

   -34.7014 -16.5957 -16.2212 -16.1492 -13.8604 -13.4191  -1.6850  -1.3062
     1.3704   2.0260   2.1024   2.5314

          k = 0.0816 0.5180 0.3079 (  6023 PWs)   bands (ev):

[...]
        Each G-vector array             0.29 Mb     (  37445)
        G-vector shells                 0.01 Mb     (   1741)
     Largest temporary arrays     est. size (Mb)     dimensions
        Auxiliary wavefunctions         4.81 Mb     (   6567,   48)
        Each subspace H/S matrix        0.04 Mb     (  48,  48)
        Each <psi_i|beta_j> matrix      0.00 Mb     (      9,   12)
        Arrays for rho mixing          21.09 Mb     (  86400,  16)

     Initial potential from superposition of free atoms

     starting charge   21.99998, renormalised to   24.00000
     Starting wfc are   14 randomized atomic wfcs

     Writing output data file CaOH2_ambient.save

     total cpu time spent up to now is     4719.3 secs

     per-process dynamical memory:    25.4 Mb

     Self-consistent Calculation

     iteration #  1     ecut=   100.00 Ry     beta=0.30
     Davidson diagonalization with overlap
     ethr =  1.00E-06,  avg # of iterations =  6.2

     total cpu time spent up to now is     4773.2 secs

     total energy              =    -140.24591087 Ry
     Harris-Foulkes estimate   =    -140.33464571 Ry
     estimated scf accuracy    <       0.47887413 Ry

     iteration #  2     ecut=   100.00 Ry     beta=0.30
     Davidson diagonalization with overlap
     ethr =  2.00E-03,  avg # of iterations =  1.0

     total cpu time spent up to now is     4790.1 secs

     total energy              =    -140.06756243 Ry
     Harris-Foulkes estimate   =    -140.24967416 Ry
     estimated scf accuracy    <       0.29884636 Ry

     iteration #  3     ecut=   100.00 Ry     beta=0.30
     Davidson diagonalization with overlap
     ethr =  1.25E-03,  avg # of iterations =  2.0

     total cpu time spent up to now is     4809.9 secs

     total energy              =    -140.10619536 Ry
     Harris-Foulkes estimate   =    -140.11261463 Ry
     estimated scf accuracy    <       0.01603831 Ry

     iteration #  4     ecut=   100.00 Ry     beta=0.30
     Davidson diagonalization with overlap
     ethr =  6.68E-05,  avg # of iterations =  2.1

     total cpu time spent up to now is     4831.2 secs

     total energy              =    -140.10892868 Ry
     Harris-Foulkes estimate   =    -140.10992525 Ry
     estimated scf accuracy    <       0.00368278 Ry

     iteration #  5     ecut=   100.00 Ry     beta=0.30
     Davidson diagonalization with overlap
     ethr =  1.53E-05,  avg # of iterations =  2.0

     total cpu time spent up to now is     4853.0 secs

     total energy              =    -140.10870754 Ry
     Harris-Foulkes estimate   =    -140.10992515 Ry
     estimated scf accuracy    <       0.00306569 Ry

     iteration #  6     ecut=   100.00 Ry     beta=0.30
     Davidson diagonalization with overlap
     ethr =  1.28E-05,  avg # of iterations =  2.0

     total cpu time spent up to now is     4873.2 secs

     total energy              =    -140.10901660 Ry
     Harris-Foulkes estimate   =    -140.10903725 Ry
     estimated scf accuracy    <       0.00011051 Ry

     iteration #  7     ecut=   100.00 Ry     beta=0.30
     Davidson diagonalization with overlap
     ethr =  4.60E-07,  avg # of iterations =  2.1

     total cpu time spent up to now is     4895.1 secs

     total energy              =    -140.10902522 Ry
     Harris-Foulkes estimate   =    -140.10903642 Ry
     estimated scf accuracy    <       0.00007072 Ry

     iteration #  8     ecut=   100.00 Ry     beta=0.30
     Davidson diagonalization with overlap
     ethr =  2.95E-07,  avg # of iterations =  2.0

     total cpu time spent up to now is     4917.1 secs

     total energy              =    -140.10903439 Ry
     Harris-Foulkes estimate   =    -140.10904089 Ry
     estimated scf accuracy    <       0.00001601 Ry

     iteration #  9     ecut=   100.00 Ry     beta=0.30
     Davidson diagonalization with overlap
     ethr =  6.67E-08,  avg # of iterations =  2.0

     total cpu time spent up to now is     4940.2 secs

     total energy              =    -140.10903722 Ry
     Harris-Foulkes estimate   =    -140.10903695 Ry
     estimated scf accuracy    <       0.00000081 Ry

     iteration # 10     ecut=   100.00 Ry     beta=0.30
     Davidson diagonalization with overlap
     ethr =  3.37E-09,  avg # of iterations =  3.0

     total cpu time spent up to now is     4966.4 secs

     total energy              =    -140.10903714 Ry
     Harris-Foulkes estimate   =    -140.10903774 Ry
     estimated scf accuracy    <       0.00000142 Ry

     iteration # 11     ecut=   100.00 Ry     beta=0.30
     Davidson diagonalization with overlap
     ethr =  3.37E-09,  avg # of iterations =  2.3

     total cpu time spent up to now is     4988.6 secs

     total energy              =    -140.10903743 Ry
     Harris-Foulkes estimate   =    -140.10903743 Ry
     estimated scf accuracy    <       0.00000003 Ry

     iteration # 12     ecut=   100.00 Ry     beta=0.30
     Davidson diagonalization with overlap
     ethr =  1.05E-10,  avg # of iterations =  2.0

     total cpu time spent up to now is     5008.7 secs

     total energy              =    -140.10903744 Ry
     Harris-Foulkes estimate   =    -140.10903744 Ry
     estimated scf accuracy    <       0.00000001 Ry

     iteration # 13     ecut=   100.00 Ry     beta=0.30
     Davidson diagonalization with overlap
     ethr =  4.81E-11,  avg # of iterations =  2.0

     total cpu time spent up to now is     5029.0 secs

     End of self-consistent calculation

          k = 0.0816 0.1413 0.0607 (  6536 PWs)   bands (ev):

   -34.8732 -16.5505 -16.3327 -16.2229 -14.1757 -13.5260  -2.4170  -0.7984
     1.8241   1.8880   2.3354   2.6755

          k = 0.0816 0.1413 0.1821 (  6535 PWs)   bands (ev):

   -34.8731 -16.5691 -16.3278 -16.2227 -14.0831 -13.6085  -2.2594  -1.1004
     1.8577   1.9927   2.3443   2.6162

          k = 0.0816 0.1413 0.3036 (  6514 PWs)   bands (ev):

   -34.8730 -16.5866 -16.3237 -16.2225 -13.9285 -13.7533  -1.9624  -1.5283
     1.9532   2.0393   2.3617   2.5282

          k = 0.0816 0.3297 0.0607 (  6550 PWs)   bands (ev):

   -34.8598 -16.5850 -16.4451 -16.2607 -13.9499 -13.6227  -2.0733  -1.0669
     1.4951   1.8788   1.9420   2.5515

          k = 0.0816 0.3297 0.1821 (  6548 PWs)   bands (ev):

   -34.8597 -16.5755 -16.4555 -16.2604 -13.9790 -13.5912  -2.0416  -1.2737
     1.6610   1.8778   2.0302   2.5354

          k = 0.0816 0.3297 0.3036 (  6547 PWs)   bands (ev):

   -34.8596 -16.5734 -16.4604 -16.2601 -13.9609 -13.6081  -1.9067  -1.5474
     1.8320   1.9606   2.0404   2.4423

          k = 0.0816 0.5181 0.0607 (  6548 PWs)   bands (ev):

   -34.8499 -16.7387 -16.3586 -16.2955 -13.9048 -13.6046  -1.6916  -1.3631
     1.0359   1.8891   1.9836   2.4083

          k = 0.0816 0.5181 0.1821 (  6565 PWs)   bands (ev):

   -34.8498 -16.7310 -16.3619 -16.2950 -13.9694 -13.5446  -1.7959  -1.4205
     1.2556   1.9117   1.9860   2.4004

          k = 0.0816 0.5181 0.3036 (  6554 PWs)   bands (ev):

   -34.8497 -16.7247 -16.3644 -16.2948 -14.0043 -13.5148  -1.8545  -1.5020
     1.5315   1.8875   1.9713   2.3657

          k = 0.0816-0.4239 0.0607 (  6554 PWs)   bands (ev):

   -34.8535 -16.6875 -16.3915 -16.2807 -13.8246 -13.7066  -1.8117  -1.2563
     1.2002   1.8539   2.0202   2.3943

          k = 0.0816-0.4239 0.1821 (  6554 PWs)   bands (ev):

   -34.8534 -16.6827 -16.3951 -16.2804 -13.8605 -13.6736  -1.7608  -1.4599
     1.4225   1.8519   2.1312   2.2671

          k = 0.0816-0.4239 0.3036 (  6566 PWs)   bands (ev):

   -34.8534 -16.6738 -16.4011 -16.2800 -13.9480 -13.5877  -1.7630  -1.6186
     1.6960   1.8482   2.0656   2.3019

          k = 0.0816-0.2355 0.0607 (  6550 PWs)   bands (ev):

   -34.8670 -16.5168 -16.4438 -16.2400 -14.0338 -13.6012  -2.2497  -0.9243
     1.7603   1.9258   2.0141   2.5724

          k = 0.0816-0.2355 0.1821 (  6537 PWs)   bands (ev):

   -34.8669 -16.5326 -16.4358 -16.2398 -13.9627 -13.6664  -2.1238  -1.2047
     1.8133   2.0578   2.0922   2.4640

          k = 0.0816-0.2355 0.3036 (  6543 PWs)   bands (ev):

   -34.8668 -16.5425 -16.4327 -16.2396 -13.8854 -13.7376  -1.8882  -1.5876
     1.9252   2.0522   2.2068   2.4020

          k = 0.0816-0.0471 0.0607 (  6529 PWs)   bands (ev):

   -34.8768 -16.5746 -16.2552 -16.2138 -14.2624 -13.4855  -2.5066  -0.7277
     1.8418   1.8600   2.5718   2.7393

          k = 0.0816-0.0471 0.1821 (  6508 PWs)   bands (ev):

   -34.8767 -16.5950 -16.2532 -16.2136 -14.1529 -13.5819  -2.3264  -1.0414
     1.8799   1.9490   2.5131   2.6924

          k = 0.0816-0.0471 0.3036 (  6505 PWs)   bands (ev):

   -34.8766 -16.6149 -16.2513 -16.2135 -13.9705 -13.7520  -1.9951  -1.4937
     1.9648   2.0129   2.4760   2.5896

          k = 0.2447 0.4239 0.0607 (  6541 PWs)   bands (ev):

   -34.8499 -16.6423 -16.4335 -16.3391 -13.7767 -13.7100  -1.7342  -1.3167
     1.2526   1.6975   1.8307   2.5051

          k = 0.2447 0.4239 0.1821 (  6558 PWs)   bands (ev):

   -34.8498 -16.6358 -16.4357 -16.3402 -13.8375 -13.6551  -1.7473  -1.4432
     1.4349   1.7605   1.9193   2.3613

          k = 0.2447 0.4239 0.3036 (  6567 PWs)   bands (ev):

   -34.8498 -16.6290 -16.4382 -16.3411 -13.8739 -13.6244  -1.7378  -1.5821
     1.6582   1.8669   2.0050   2.1262

          k = 0.2447 0.6122 0.0607 (  6541 PWs)   bands (ev):

   -34.8472 -16.6388 -16.4628 -16.3460 -13.7676 -13.6958  -1.5945  -1.4333
     1.1933   1.6803   1.7571   2.5136

          k = 0.2447 0.6122 0.1821 (  6560 PWs)   bands (ev):

   -34.8472 -16.6339 -16.4612 -16.3483 -13.8018 -13.6700  -1.6345  -1.5164
     1.3714   1.7400   1.8514   2.3471

          k = 0.2447 0.6122 0.3036 (  6567 PWs)   bands (ev):

   -34.8471 -16.6285 -16.4601 -16.3505 -13.8328 -13.6471  -1.6873  -1.5815
     1.6346   1.8081   1.9467   2.0821

          k = 0.2447-0.3297 0.0607 (  6547 PWs)   bands (ev):

   -34.8545 -16.6262 -16.4283 -16.3032 -13.8583 -13.6684  -1.9060  -1.1876
     1.3556   1.7853   1.8960   2.5116

          k = 0.2447-0.3297 0.1821 (  6543 PWs)   bands (ev):

   -34.8544 -16.6175 -16.4356 -16.3028 -13.9108 -13.6175  -1.9014  -1.3543
     1.5319   1.8302   1.9846   2.4256

          k = 0.2447-0.3297 0.3036 (  6565 PWs)   bands (ev):

   -34.8543 -16.6112 -16.4411 -16.3025 -13.9269 -13.6038  -1.8303  -1.5638
     1.7204   1.9317   2.0295   2.2788

          k = 0.2447-0.1413 0.0607 (  6557 PWs)   bands (ev):

   -34.8644 -16.5337 -16.4591 -16.2399 -14.0211 -13.5908  -2.2012  -0.9719
     1.6591   1.8920   1.9884   2.6084

          k = 0.2447-0.1413 0.1821 (  6541 PWs)   bands (ev):

   -34.8643 -16.5299 -16.4670 -16.2397 -14.0161 -13.5906  -2.1328  -1.2137
     1.8172   1.8831   2.0486   2.6151

          k = 0.2447-0.1413 0.3036 (  6523 PWs)   bands (ev):

   -34.8642 -16.5404 -16.4625 -16.2395 -13.9610 -13.6416  -1.9404  -1.5418
     1.9566   1.9728   2.0544   2.5223

          k = 0.4079 0.7064 0.0607 (  6547 PWs)   bands (ev):

   -34.8482 -16.7027 -16.3728 -16.3496 -13.8407 -13.6425  -1.6086  -1.4272
     1.0919   1.7802   1.8723   2.4616

          k = 0.4079 0.7064 0.1821 (  6560 PWs)   bands (ev):

   -34.8481 -16.6966 -16.3720 -16.3520 -13.8886 -13.6013  -1.6933  -1.4816
     1.2944   1.8151   1.9409   2.3501

          k = 0.4079 0.7064 0.3036 (  6560 PWs)   bands (ev):

   -34.8481 -16.6905 -16.3711 -16.3546 -13.9260 -13.5708  -1.7705  -1.5345
     1.5668   1.8309   1.9785   2.2091

          k = 0.4079-0.2355 0.0607 (  6546 PWs)   bands (ev):

   -34.8518 -16.7306 -16.3713 -16.2658 -13.9319 -13.5948  -1.7944  -1.2826
     1.0743   1.9484   1.9969   2.4167

          k = 0.4079-0.2355 0.1821 (  6553 PWs)   bands (ev):

   -34.8517 -16.7219 -16.3758 -16.2656 -14.0034 -13.5259  -1.8812  -1.3715
     1.2936   1.9501   1.9929   2.4611

          k = 0.4079-0.2355 0.3036 (  6532 PWs)   bands (ev):

   -34.8516 -16.7162 -16.3789 -16.2653 -14.0282 -13.5048  -1.8975  -1.4959
     1.5607   1.9362   1.9591   2.4416

          k =-0.0816 0.3297-0.0607 (  6550 PWs)   bands (ev):

   -34.8598 -16.5916 -16.4402 -16.2608 -13.8840 -13.6898  -2.0345  -1.0837
     1.4939   1.8666   1.9858   2.4703

          k =-0.0816 0.3297-0.1821 (  6548 PWs)   bands (ev):

   -34.8597 -16.5900 -16.4445 -16.2605 -13.8405 -13.7320  -1.9422  -1.3327
     1.6720   1.8878   2.1263   2.3215

          k =-0.0816 0.3297-0.3036 (  6547 PWs)   bands (ev):

   -34.8596 -16.5813 -16.4541 -16.2602 -13.9026 -13.6676  -1.7893  -1.6458
     1.8822   1.9121   2.1252   2.3092

          k =-0.0816 0.5181-0.0607 (  6548 PWs)   bands (ev):

   -34.8499 -16.7400 -16.3579 -16.2956 -13.8758 -13.6343  -1.6377  -1.4061
     1.0351   1.8659   2.0217   2.3720

          k =-0.0816 0.5181-0.1821 (  6565 PWs)   bands (ev):

   -34.8498 -16.7338 -16.3604 -16.2953 -13.9285 -13.5868  -1.6953  -1.5009
     1.2627   1.8715   2.0504   2.3259

          k =-0.0816 0.5181-0.3036 (  6554 PWs)   bands (ev):

   -34.8497 -16.7262 -16.3637 -16.2949 -13.9877 -13.5320  -1.8104  -1.5366
     1.5510   1.8467   2.0061   2.3312

          k =-0.0816-0.4239-0.0607 (  6554 PWs)   bands (ev):

   -34.8535 -16.6836 -16.3937 -16.2806 -13.9128 -13.6170  -1.8743  -1.2180
     1.1999   1.9113   1.9338   2.4755

          k =-0.0816-0.4239-0.1821 (  6554 PWs)   bands (ev):

   -34.8534 -16.6747 -16.3998 -16.2801 -13.9791 -13.5523  -1.9191  -1.3468
     1.4000   1.9061   1.9953   2.4719

          k =-0.0816-0.4239-0.3036 (  6566 PWs)   bands (ev):

   -34.8534 -16.6696 -16.4036 -16.2799 -13.9928 -13.5416  -1.8857  -1.5171
     1.6395   1.9448   1.9747   2.4016

          k =-0.0816-0.2355-0.0607 (  6550 PWs)   bands (ev):

   -34.8670 -16.5106 -16.4491 -16.2400 -14.0518 -13.5827  -2.2635  -0.9203
     1.8082   1.8563   2.0105   2.6233

          k =-0.0816-0.2355-0.1821 (  6537 PWs)   bands (ev):

   -34.8669 -16.5230 -16.4437 -16.2398 -14.0099 -13.6183  -2.1591  -1.1876
     1.8568   1.9736   2.0572   2.5876

          k =-0.0816-0.2355-0.3036 (  6543 PWs)   bands (ev):

   -34.8668 -16.5385 -16.4359 -16.2396 -13.9280 -13.6945  -1.9299  -1.5545
     1.9419   2.0340   2.1437   2.4890

          k =-0.0816-0.0471-0.0607 (  6529 PWs)   bands (ev):

   -34.8768 -16.5748 -16.2552 -16.2138 -14.2607 -13.4873  -2.5049  -0.7279
     1.8277   1.8738   2.6082   2.6980

          k =-0.0816-0.0471-0.1821 (  6508 PWs)   bands (ev):

   -34.8767 -16.5955 -16.2530 -16.2137 -14.1483 -13.5866  -2.3222  -1.0429
     1.8713   1.9570   2.5969   2.6005

          k =-0.0816-0.0471-0.3036 (  6505 PWs)   bands (ev):

   -34.8766 -16.6151 -16.2512 -16.2135 -13.9643 -13.7582  -1.9906  -1.4970
     1.9623   2.0149   2.5303   2.5320

          k =-0.2447 0.6122-0.0607 (  6541 PWs)   bands (ev):

   -34.8472 -16.6383 -16.4632 -16.3459 -13.7816 -13.6817  -1.6075  -1.4220
     1.1922   1.7028   1.7352   2.5176

          k =-0.2447 0.6122-0.1821 (  6560 PWs)   bands (ev):

   -34.8472 -16.6330 -16.4621 -16.3481 -13.8180 -13.6536  -1.6636  -1.4907
     1.3664   1.7771   1.8162   2.3567

          k =-0.2447 0.6122-0.3036 (  6567 PWs)   bands (ev):

   -34.8471 -16.6280 -16.4606 -16.3504 -13.8391 -13.6408  -1.7037  -1.5667
     1.6225   1.8494   1.9055   2.0974

          k =-0.2447-0.3297-0.0607 (  6547 PWs)   bands (ev):

   -34.8545 -16.6287 -16.4264 -16.3034 -13.7967 -13.7307  -1.8821  -1.2011
     1.3594   1.7573   1.9287   2.4803

          k =-0.2447-0.3297-0.1821 (  6543 PWs)   bands (ev):

   -34.8544 -16.6229 -16.4314 -16.3031 -13.8398 -13.6897  -1.8400  -1.3962
     1.5560   1.7833   2.0471   2.3422

          k =-0.2447-0.3297-0.3036 (  6565 PWs)   bands (ev):

   -34.8543 -16.6141 -16.4389 -16.3027 -13.9004 -13.6309  -1.7650  -1.6199
     1.7584   1.8681   2.1390   2.1736

          k =-0.2447-0.1413-0.0607 (  6557 PWs)   bands (ev):

   -34.8644 -16.5450 -16.4498 -16.2399 -13.9722 -13.6408  -2.1664  -0.9838
     1.6365   1.9712   1.9795   2.5037

          k =-0.2447-0.1413-0.1821 (  6541 PWs)   bands (ev):

   -34.8643 -16.5528 -16.4480 -16.2397 -13.8922 -13.7168  -2.0438  -1.2603
     1.7520   2.0403   2.1088   2.3551

          k =-0.2447-0.1413-0.3036 (  6523 PWs)   bands (ev):

   -34.8642 -16.5513 -16.4535 -16.2395 -13.8841 -13.7197  -1.8338  -1.6285
     1.9054   2.0866   2.0879   2.3753

          k =-0.4079-0.2355-0.0607 (  6546 PWs)   bands (ev):

   -34.8518 -16.7335 -16.3701 -16.2658 -13.8699 -13.6581  -1.7183  -1.3359
     1.0722   1.9107   2.0771   2.3285

          k =-0.4079-0.2355-0.1821 (  6553 PWs)   bands (ev):

   -34.8517 -16.7279 -16.3731 -16.2656 -13.9160 -13.6158  -1.7025  -1.5074
     1.3069   1.9025   2.1035   2.2915

          k =-0.4079-0.2355-0.3036 (  6532 PWs)   bands (ev):

   -34.8516 -16.7193 -16.3775 -16.2653 -13.9935 -13.5407  -1.8034  -1.5699
     1.5984   1.8609   2.0230   2.3696

!    total energy              =    -140.10903744 Ry
     Harris-Foulkes estimate   =    -140.10903744 Ry
     estimated scf accuracy    <          6.4E-10 Ry

     The total energy is the sum of the following terms:

     one-electron contribution =     -66.23282386 Ry
     hartree contribution      =      42.04273736 Ry
     xc contribution           =     -25.88125311 Ry
     ewald contribution        =     -90.03769783 Ry

     convergence has been achieved in  13 iterations

     Forces acting on atoms (Ry/au):

     atom    1 type  3   force =     0.00000000   -0.00000000    0.00000000
     atom    2 type  2   force =    -0.00000000    0.00000000   -0.00013787
     atom    3 type  2   force =     0.00000000   -0.00000000    0.00013787
     atom    4 type  1   force =    -0.00000000   -0.00000000    0.00013917
     atom    5 type  1   force =     0.00000000   -0.00000000   -0.00013917

     Total force =     0.000277     Total SCF correction =     0.000014


     entering subroutine stress ...

          total   stress  (Ry/bohr**3)                   (kbar)     P=    4.79
   0.00002745   0.00000000   0.00000000          4.04      0.00      0.00
   0.00000000   0.00002745  -0.00000000          0.00      4.04     -0.00
   0.00000000  -0.00000000   0.00004272          0.00     -0.00      6.28


     Writing output data file CaOH2_ambient.save

     init_run     :     64.75s CPU     67.79s WALL (       2 calls)
     electrons    :   3066.80s CPU   3120.69s WALL (      16 calls)
     update_pot   :    828.44s CPU    837.65s WALL (      14 calls)
     forces       :    310.77s CPU    313.31s WALL (      16 calls)
     stress       :    693.29s CPU    696.88s WALL (      16 calls)

     Called by init_run:
     wfcinit      :     19.97s CPU     22.62s WALL (       2 calls)
     potinit      :     20.76s CPU     20.87s WALL (       2 calls)

     Called by electrons:
     c_bands      :   2573.17s CPU   2615.58s WALL (     145 calls)
     sum_band     :    442.86s CPU    452.47s WALL (     145 calls)
     v_of_rho     :     22.61s CPU     23.11s WALL (     158 calls)
     mix_rho      :     29.33s CPU     30.43s WALL (     145 calls)

     Called by c_bands:
     init_us_2    :     89.29s CPU     92.93s WALL (   20412 calls)
     cegterg      :   2527.21s CPU   2542.24s WALL (    9135 calls)

     Called by *egterg:
     h_psi        :   1938.46s CPU   1949.99s WALL (   28682 calls)
     g_psi        :     17.52s CPU     17.76s WALL (   19421 calls)
     cdiaghg      :     13.37s CPU     13.68s WALL (   27485 calls)

     Called by h_psi:
     add_vuspsi   :     50.58s CPU     50.98s WALL (   28682 calls)

     General routines
     calbec       :     58.55s CPU     59.02s WALL (   30698 calls)
     fft          :      6.50s CPU      6.63s WALL (    1870 calls)
     ffts         :     12.43s CPU     12.47s WALL (    3518 calls)
     fftw         :   1775.71s CPU   1783.08s WALL (  696618 calls)
     davcio       :      4.94s CPU     37.68s WALL (   29547 calls)


     PWSCF        :     1h22m CPU        1h24m WALL


   This run was terminated on:   1:29:29  19Apr2014            

=------------------------------------------------------------------------------=
   JOB DONE.
=------------------------------------------------------------------------------=
