
     Program PWSCF v.5.0.2 (svn rev. 9392) starts on  3Jun2014 at 16:32:27 

     This program is part of the open-source Quantum ESPRESSO suite
     for quantum simulation of materials; please cite
         "P. Giannozzi et al., J. Phys.:Condens. Matter 21 395502 (2009);
          URL http://www.quantum-espresso.org", 
     in publications or presentations arising from this work. More details at
     http://www.quantum-espresso.org/quote.php

     Serial version

     Current dimensions of program PWSCF are:
     Max number of different atomic species (ntypx) = 10
     Max number of k-points (npk) =  40000
     Max angular momentum in pseudopotentials (lmaxx) =  3
     Waiting for input...
     Reading input from standard input

     G-vector sticks info
     --------------------
     sticks:   dense  smooth     PW     G-vecs:    dense   smooth      PW
     Sum        1039    1039    313                35601    35601    5799



     bravais-lattice index     =            4
     lattice parameter (alat)  =       6.8695  a.u.
     unit-cell volume          =     367.8832 (a.u.)^3
     number of atoms/cell      =            6
     number of atomic types    =            2
     number of electrons       =        24.00
     number of Kohn-Sham states=           12
     kinetic-energy cutoff     =      80.0000  Ry
     charge density cutoff     =     320.0000  Ry
     convergence threshold     =      1.0E-06
     mixing beta               =       0.3000
     number of iterations used =           16  local-TF  mixing
     Exchange-correlation      = PBE ( 1 4 3 4 0)
     EXX-fraction              =        0.00
     nstep                     =           50


     celldm(1)=   6.869500  celldm(2)=   0.000000  celldm(3)=   1.310400
     celldm(4)=   0.000000  celldm(5)=   0.000000  celldm(6)=   0.000000

     crystal axes: (cart. coord. in units of alat)
               a(1) = (   1.000000   0.000000   0.000000 )  
               a(2) = (  -0.500000   0.866025   0.000000 )  
               a(3) = (   0.000000   0.000000   1.310400 )  

     reciprocal axes: (cart. coord. in units 2 pi/alat)
               b(1) = (  1.000000  0.577350 -0.000000 )  
               b(2) = (  0.000000  1.154701  0.000000 )  
               b(3) = (  0.000000 -0.000000  0.763126 )  


     PseudoPot. # 1 for H  read from file:
     /home/ilia/espresso/pseudo/H.pbe-sp-mt.ncpp
     MD5 check sum: 7a641936b52ccecd26bd1ad87cca5aed
     Pseudo is Norm-conserving, Zval =  1.0
     Generated by old ld1 code (numerical format)
     Using radial grid of 1076 points,  0 beta functions with: 

     PseudoPot. # 2 for Ca read from file:
     /home/ilia/espresso/pseudo/Ca.pbe-sp-mt_ion2.ncpp
     MD5 check sum: 4bcd670d05521f7b178fdf0a334578ab
     Pseudo is Norm-conserving, Zval = 10.0
     Generated by old ld1 code (numerical format)
     Using radial grid of 1153 points,  1 beta functions with: 
                l(1) =   1

     atomic species   valence    mass     pseudopotential
        H              1.00     1.00700     H ( 1.00)
        Ca            10.00    40.07800     Ca( 1.00)

     24 Sym. Ops., with inversion, found (12 have fractional translation)



   Cartesian axes

     site n.     atom                  positions (alat units)
         1           Ca  tau(   1) = (   0.0000000   0.5773503   0.3276000  )
         2           Ca  tau(   2) = (   0.5000000   0.2886751   0.9828000  )
         3           H   tau(   3) = (   0.0000000   0.5773503   0.9828000  )
         4           H   tau(   4) = (   0.5000000   0.2886751   0.3276000  )
         5           H   tau(   5) = (   0.0000000   0.0000000   0.0000000  )
         6           H   tau(   6) = (   0.0000000   0.0000000   0.6552000  )

     number of k points=    36
                       cart. coord. in units 2pi/alat
        k(    1) = (   0.0833333   0.1443376   0.0635938), wk =   0.0370370
        k(    2) = (   0.0833333   0.1443376   0.1907814), wk =   0.0370370
        k(    3) = (   0.0833333   0.1443376   0.3179691), wk =   0.0370370
        k(    4) = (   0.0833333   0.3367877   0.0635938), wk =   0.0740741
        k(    5) = (   0.0833333   0.3367877   0.1907814), wk =   0.0740741
        k(    6) = (   0.0833333   0.3367877   0.3179691), wk =   0.0740741
        k(    7) = (   0.0833333   0.5292377   0.0635938), wk =   0.0740741
        k(    8) = (   0.0833333   0.5292377   0.1907814), wk =   0.0740741
        k(    9) = (   0.0833333   0.5292377   0.3179691), wk =   0.0740741
        k(   10) = (   0.0833333  -0.4330127   0.0635938), wk =   0.0740741
        k(   11) = (   0.0833333  -0.4330127   0.1907814), wk =   0.0740741
        k(   12) = (   0.0833333  -0.4330127   0.3179691), wk =   0.0740741
        k(   13) = (   0.0833333  -0.2405626   0.0635938), wk =   0.0740741
        k(   14) = (   0.0833333  -0.2405626   0.1907814), wk =   0.0740741
        k(   15) = (   0.0833333  -0.2405626   0.3179691), wk =   0.0740741
        k(   16) = (   0.0833333  -0.0481125   0.0635938), wk =   0.0370370
        k(   17) = (   0.0833333  -0.0481125   0.1907814), wk =   0.0370370
        k(   18) = (   0.0833333  -0.0481125   0.3179691), wk =   0.0370370
        k(   19) = (   0.2500000   0.4330127   0.0635938), wk =   0.0370370
        k(   20) = (   0.2500000   0.4330127   0.1907814), wk =   0.0370370
        k(   21) = (   0.2500000   0.4330127   0.3179691), wk =   0.0370370
        k(   22) = (   0.2500000   0.6254628   0.0635938), wk =   0.0740741
        k(   23) = (   0.2500000   0.6254628   0.1907814), wk =   0.0740741
        k(   24) = (   0.2500000   0.6254628   0.3179691), wk =   0.0740741
        k(   25) = (   0.2500000  -0.3367877   0.0635938), wk =   0.0740741
        k(   26) = (   0.2500000  -0.3367877   0.1907814), wk =   0.0740741
        k(   27) = (   0.2500000  -0.3367877   0.3179691), wk =   0.0740741
        k(   28) = (   0.2500000  -0.1443376   0.0635938), wk =   0.0370370
        k(   29) = (   0.2500000  -0.1443376   0.1907814), wk =   0.0370370
        k(   30) = (   0.2500000  -0.1443376   0.3179691), wk =   0.0370370
        k(   31) = (   0.4166667   0.7216878   0.0635938), wk =   0.0370370
        k(   32) = (   0.4166667   0.7216878   0.1907814), wk =   0.0370370
        k(   33) = (   0.4166667   0.7216878   0.3179691), wk =   0.0370370
        k(   34) = (   0.4166667  -0.2405626   0.0635938), wk =   0.0370370
        k(   35) = (   0.4166667  -0.2405626   0.1907814), wk =   0.0370370
        k(   36) = (   0.4166667  -0.2405626   0.3179691), wk =   0.0370370

     Dense  grid:    35601 G-vectors     FFT dimensions: (  40,  40,  54)

     Largest allocated arrays     est. size (Mb)     dimensions
        Kohn-Sham Wavefunctions         0.82 Mb     (   4465,   12)
        NL pseudopotentials             0.41 Mb     (   4465,    6)
        Each V/rho on FFT grid          1.32 Mb     (  86400)
        Each G-vector array             0.27 Mb     (  35601)
        G-vector shells                 0.27 Mb     (  35601)
     Largest temporary arrays     est. size (Mb)     dimensions
        Auxiliary wavefunctions         3.27 Mb     (   4465,   48)
        Each subspace H/S matrix        0.04 Mb     (  48,  48)
        Each <psi_i|beta_j> matrix      0.00 Mb     (      6,   12)
        Arrays for rho mixing          21.09 Mb     (  86400,  16)

     Initial potential from superposition of free atoms

     starting charge   19.99996, renormalised to   24.00000
     Starting wfc are   12 randomized atomic wfcs

     total cpu time spent up to now is       33.3 secs

     per-process dynamical memory:    18.0 Mb

     Self-consistent Calculation

     iteration #  1     ecut=    80.00 Ry     beta=0.30
     Davidson diagonalization with overlap
     ethr =  1.00E-02,  avg # of iterations =  2.0

     total cpu time spent up to now is       45.5 secs

     total energy              =    -153.07279251 Ry
     Harris-Foulkes estimate   =    -154.21365382 Ry
     estimated scf accuracy    <       5.60363544 Ry

     iteration #  2     ecut=    80.00 Ry     beta=0.30
     Davidson diagonalization with overlap
     ethr =  1.00E-02,  avg # of iterations =  1.0

     total cpu time spent up to now is       54.0 secs

     total energy              =    -150.83698953 Ry
     Harris-Foulkes estimate   =    -153.13636637 Ry
     estimated scf accuracy    <       3.36085036 Ry

     iteration #  3     ecut=    80.00 Ry     beta=0.30
     Davidson diagonalization with overlap
     ethr =  1.00E-02,  avg # of iterations =  2.0

     total cpu time spent up to now is       66.1 secs

     total energy              =    -151.46406444 Ry
     Harris-Foulkes estimate   =    -151.46887677 Ry
     estimated scf accuracy    <       0.12171909 Ry

     iteration #  4     ecut=    80.00 Ry     beta=0.30
     Davidson diagonalization with overlap
     ethr =  5.07E-04,  avg # of iterations =  1.2

     total cpu time spent up to now is       75.0 secs

     total energy              =    -151.46762627 Ry
     Harris-Foulkes estimate   =    -151.46640676 Ry
     estimated scf accuracy    <       0.07585957 Ry

     iteration #  5     ecut=    80.00 Ry     beta=0.30
     Davidson diagonalization with overlap
     ethr =  3.16E-04,  avg # of iterations =  2.0

     total cpu time spent up to now is       84.5 secs

     total energy              =    -151.47348455 Ry
     Harris-Foulkes estimate   =    -151.47365066 Ry
     estimated scf accuracy    <       0.00214786 Ry

     iteration #  6     ecut=    80.00 Ry     beta=0.30
     Davidson diagonalization with overlap
     ethr =  8.95E-06,  avg # of iterations =  2.1

     total cpu time spent up to now is       93.6 secs

     total energy              =    -151.47376356 Ry
     Harris-Foulkes estimate   =    -151.47362701 Ry
     estimated scf accuracy    <       0.00104735 Ry

     iteration #  7     ecut=    80.00 Ry     beta=0.30
     Davidson diagonalization with overlap
     ethr =  4.36E-06,  avg # of iterations =  2.0

     total cpu time spent up to now is      103.0 secs

     total energy              =    -151.47368567 Ry
     Harris-Foulkes estimate   =    -151.47383291 Ry
     estimated scf accuracy    <       0.00022358 Ry

     iteration #  8     ecut=    80.00 Ry     beta=0.30
     Davidson diagonalization with overlap
     ethr =  9.32E-07,  avg # of iterations =  2.0

     total cpu time spent up to now is      114.8 secs

     total energy              =    -151.47372341 Ry
     Harris-Foulkes estimate   =    -151.47372142 Ry
     estimated scf accuracy    <       0.00000279 Ry

     iteration #  9     ecut=    80.00 Ry     beta=0.30
     Davidson diagonalization with overlap
     ethr =  1.16E-08,  avg # of iterations =  2.8

     total cpu time spent up to now is      127.5 secs

     total energy              =    -151.47372133 Ry
     Harris-Foulkes estimate   =    -151.47372645 Ry
     estimated scf accuracy    <       0.00001100 Ry

     iteration # 10     ecut=    80.00 Ry     beta=0.30
     Davidson diagonalization with overlap
     ethr =  1.16E-08,  avg # of iterations =  2.0

     total cpu time spent up to now is      139.5 secs

     End of self-consistent calculation

          k = 0.0833 0.1443 0.0636 (  4433 PWs)   bands (ev):

   -31.6045 -31.4301 -13.5095 -13.0075 -12.9923 -12.8512 -12.7664 -12.7627
     1.5643   4.8269   7.1756   8.3198

          k = 0.0833 0.1443 0.1908 (  4435 PWs)   bands (ev):

   -31.5814 -31.4538 -13.4435 -12.9928 -12.9630 -12.9500 -12.7964 -12.7655
     1.9481   4.3204   7.4758   8.4049

          k = 0.0833 0.1443 0.3180 (  4455 PWs)   bands (ev):

   -31.5420 -31.4949 -13.3182 -13.1536 -12.9074 -12.8905 -12.8481 -12.8153
     2.6401   3.5004   7.9861   8.3634

          k = 0.0833 0.3368 0.0636 (  4441 PWs)   bands (ev):

   -31.5650 -31.4417 -13.4003 -13.1382 -13.0610 -12.9855 -12.8393 -12.7724
     2.6554   5.2232   6.5935   6.9560

          k = 0.0833 0.3368 0.1908 (  4446 PWs)   bands (ev):

   -31.5484 -31.4583 -13.4281 -13.1786 -13.0200 -12.9899 -12.8135 -12.7780
     2.9870   4.9640   6.7066   6.8791

          k = 0.0833 0.3368 0.3180 (  4452 PWs)   bands (ev):

   -31.5199 -31.4870 -13.4051 -13.3136 -12.9564 -12.8852 -12.8679 -12.7914
     3.5876   4.3279   6.8707   6.9496

          k = 0.0833 0.5292 0.0636 (  4457 PWs)   bands (ev):

   -31.5247 -31.4619 -13.3327 -13.1869 -13.1071 -13.0767 -12.9331 -12.7780
     4.1438   4.8981   5.5777   6.7989

          k = 0.0833 0.5292 0.1908 (  4454 PWs)   bands (ev):

   -31.5162 -31.4696 -13.4411 -13.2842 -13.0737 -12.9747 -12.8396 -12.8066
     4.4001   5.1417   5.6477   6.3446

          k = 0.0833 0.5292 0.3180 (  4444 PWs)   bands (ev):

   -31.5010 -31.4837 -13.4726 -13.4157 -12.9923 -12.9044 -12.8501 -12.7901
     4.8552   5.3526   5.6060   5.9050

          k = 0.0833-0.4330 0.0636 (  4446 PWs)   bands (ev):

   -31.5420 -31.4517 -13.3473 -13.1918 -13.0806 -13.0476 -12.8923 -12.7758
     3.3855   5.3047   5.8606   6.8539

          k = 0.0833-0.4330 0.1908 (  4453 PWs)   bands (ev):

   -31.5300 -31.4636 -13.4326 -13.2490 -13.0540 -12.9852 -12.8262 -12.7959
     3.6822   5.2870   5.9805   6.5531

          k = 0.0833-0.4330 0.3180 (  4446 PWs)   bands (ev):

   -31.5089 -31.4838 -13.4474 -13.3795 -12.9792 -12.8966 -12.8585 -12.7891
     4.2158   4.8549   6.2109   6.4016

          k = 0.0833-0.2406 0.0636 (  4445 PWs)   bands (ev):

   -31.5873 -31.4349 -13.4613 -13.0632 -13.0299 -12.9170 -12.7930 -12.7690
     2.0265   5.0258   7.0726   7.4478

          k = 0.0833-0.2406 0.1908 (  4435 PWs)   bands (ev):

   -31.5668 -31.4549 -13.4334 -13.0853 -12.9837 -12.9791 -12.8037 -12.7651
     2.3880   4.6095   7.1761   7.5724

          k = 0.0833-0.2406 0.3180 (  4447 PWs)   bands (ev):

   -31.5318 -31.4908 -13.3578 -13.2318 -12.9300 -12.8857 -12.8615 -12.8003
     3.0422   3.8556   7.4642   7.6438

          k = 0.0833-0.0481 0.0636 (  4430 PWs)   bands (ev):

   -31.6138 -31.4283 -13.5357 -12.9786 -12.9695 -12.8043 -12.7656 -12.7516
     1.3194   4.7053   7.2332   8.9760

          k = 0.0833-0.0481 0.1908 (  4422 PWs)   bands (ev):

   -31.5890 -31.4532 -13.4509 -12.9476 -12.9423 -12.9196 -12.7931 -12.7766
     1.7153   4.1596   7.6503   9.0287

          k = 0.0833-0.0481 0.3180 (  4450 PWs)   bands (ev):

   -31.5472 -31.4973 -13.2960 -13.1030 -12.8952 -12.8913 -12.8406 -12.8289
     2.4268   3.3101   8.3230   8.8787

          k = 0.2500 0.4330 0.0636 (  4434 PWs)   bands (ev):

   -31.5244 -31.4608 -13.2900 -13.2275 -13.0878 -13.0736 -12.9220 -12.8165
     3.8450   5.3470   5.5953   6.8153

          k = 0.2500 0.4330 0.1908 (  4442 PWs)   bands (ev):

   -31.5160 -31.4691 -13.3961 -13.2888 -13.1247 -12.9403 -12.8647 -12.8086
     4.1216   5.4218   5.7947   6.4454

          k = 0.2500 0.4330 0.3180 (  4447 PWs)   bands (ev):

   -31.5011 -31.4837 -13.4377 -13.3957 -13.0529 -12.9570 -12.8160 -12.7698
     4.6124   5.1692   6.0600   6.2077

          k = 0.2500 0.6255 0.0636 (  4440 PWs)   bands (ev):

   -31.5065 -31.4733 -13.2674 -13.2205 -13.1337 -13.0574 -12.9676 -12.8296
     4.4557   5.0850   5.3689   6.7890

          k = 0.2500 0.6255 0.1908 (  4450 PWs)   bands (ev):

   -31.5021 -31.4777 -13.3783 -13.3092 -13.1709 -12.9077 -12.8837 -12.8309
     4.6942   5.3140   5.5419   6.3924

          k = 0.2500 0.6255 0.3180 (  4441 PWs)   bands (ev):

   -31.4937 -31.4850 -13.4393 -13.4139 -13.0846 -12.9796 -12.7971 -12.7706
     5.1135   5.5112   5.7150   5.9273

          k = 0.2500-0.3368 0.0636 (  4442 PWs)   bands (ev):

   -31.5458 -31.4497 -13.3478 -13.1808 -13.0954 -13.0204 -12.8769 -12.7939
     3.2127   5.3231   6.0724   6.8735

          k = 0.2500-0.3368 0.1908 (  4438 PWs)   bands (ev):

   -31.5328 -31.4620 -13.4163 -13.2412 -13.0671 -12.9709 -12.8397 -12.7883
     3.5190   5.2262   6.2416   6.6144

          k = 0.2500-0.3368 0.3180 (  4444 PWs)   bands (ev):

   -31.5104 -31.4843 -13.4272 -13.3609 -13.0041 -12.9203 -12.8425 -12.7769
     4.0708   4.7353   6.4572   6.5484

          k = 0.2500-0.1443 0.0636 (  4444 PWs)   bands (ev):

   -31.5794 -31.4371 -13.4400 -13.1016 -13.0224 -12.9553 -12.8104 -12.7637
     2.2441   5.1034   7.0159   7.1184

          k = 0.2500-0.1443 0.1908 (  4445 PWs)   bands (ev):

   -31.5605 -31.4561 -13.4325 -13.1194 -12.9958 -12.9882 -12.7989 -12.7733
     2.5950   4.7372   7.0268   7.2631

          k = 0.2500-0.1443 0.3180 (  4452 PWs)   bands (ev):

   -31.5276 -31.4894 -13.3776 -13.2647 -12.9287 -12.8896 -12.8594 -12.8028
     3.2306   4.0198   7.2361   7.3628

          k = 0.4167 0.7217 0.0636 (  4450 PWs)   bands (ev):

   -31.5146 -31.4680 -13.3066 -13.1902 -13.1266 -13.0713 -12.9538 -12.8048
     4.5152   4.7488   5.5149   6.7895

          k = 0.4167 0.7217 0.1908 (  4439 PWs)   bands (ev):

   -31.5076 -31.4736 -13.4152 -13.2947 -13.1307 -12.9331 -12.8690 -12.8153
     4.7323   5.0253   5.6455   6.3483

          k = 0.4167 0.7217 0.3180 (  4442 PWs)   bands (ev):

   -31.4966 -31.4842 -13.4592 -13.4162 -13.0454 -12.9477 -12.8183 -12.7759
     5.1394   5.4029   5.7020   5.7605

          k = 0.4167-0.2406 0.0636 (  4457 PWs)   bands (ev):

   -31.5350 -31.4557 -13.3445 -13.1932 -13.0850 -13.0699 -12.9119 -12.7668
     3.7117   5.1722   5.6499   6.8232

          k = 0.4167-0.2406 0.1908 (  4465 PWs)   bands (ev):

   -31.5242 -31.4666 -13.4457 -13.2675 -13.0302 -13.0099 -12.8161 -12.8083
     3.9914   5.3303   5.6867   6.4354

          k = 0.4167-0.2406 0.3180 (  4445 PWs)   bands (ev):

   -31.5052 -31.4838 -13.4678 -13.4026 -12.9607 -12.8795 -12.8727 -12.8008
     4.4917   5.0801   5.8795   6.1533

!    total energy              =    -151.47372293 Ry
     Harris-Foulkes estimate   =    -151.47372295 Ry
     estimated scf accuracy    <       0.00000006 Ry

     The total energy is the sum of the following terms:

     one-electron contribution =     -43.98543225 Ry
     hartree contribution      =      28.58806407 Ry
     xc contribution           =     -23.69889745 Ry
     ewald contribution        =    -112.37745729 Ry

     convergence has been achieved in  10 iterations

     Forces acting on atoms (Ry/au):

     atom    1 type  2   force =     0.00000000   -0.00000000    0.00000000
     atom    2 type  2   force =     0.00000000    0.00000000    0.00000000
     atom    3 type  1   force =    -0.00000000    0.00000000    0.00000000
     atom    4 type  1   force =     0.00000000   -0.00000000   -0.00000000
     atom    5 type  1   force =    -0.00000000   -0.00000000   -0.00000000
     atom    6 type  1   force =     0.00000000    0.00000000   -0.00000000

     Total force =     0.000000     Total SCF correction =     0.000000


     entering subroutine stress ...

          total   stress  (Ry/bohr**3)                   (kbar)     P=  201.96
   0.00134506  -0.00000000   0.00000000        197.87     -0.00      0.00
  -0.00000000   0.00134506   0.00000000         -0.00    197.87      0.00
   0.00000000   0.00000000   0.00142857          0.00      0.00    210.15


     BFGS Geometry Optimization

     number of scf cycles    =   1
     number of bfgs steps    =   0

     enthalpy new            =    -147.9725759639 Ry

     new trust radius        =       0.5000000000 bohr
     new conv_thr            =       0.0000010000 Ry

     new unit-cell volume =    242.33701 a.u.^3 (    35.91064 Ang^3 )

CELL_PARAMETERS (alat=  6.86950000)
   0.869657795   0.000000000   0.000000000
  -0.434828898   0.753145743   0.000000000
   0.000000000   0.000000000   1.141345005

ATOMIC_POSITIONS (crystal)
Ca       0.333333333   0.666666667   0.250000000
Ca       0.666666667   0.333333333   0.750000000
H        0.333333333   0.666666667   0.750000000
H        0.666666667   0.333333333   0.250000000
H       -0.000000000  -0.000000000  -0.000000000
H        0.000000000   0.000000000   0.500000000



     Writing output data file CaH2_ambient.save
     NEW-OLD atomic charge density approx. for the potential
     NEW k-points:
        k(    1) = (   0.0958231   0.1659705   0.0730133), wk =   0.0370370
        k(    2) = (   0.0958231   0.1659705   0.2190398), wk =   0.0370370
        k(    3) = (   0.0958231   0.1659705   0.3650664), wk =   0.0370370
        k(    4) = (   0.0958231   0.3872646   0.0730133), wk =   0.0740741
        k(    5) = (   0.0958231   0.3872646   0.2190398), wk =   0.0740741
        k(    6) = (   0.0958231   0.3872646   0.3650664), wk =   0.0740741
        k(    7) = (   0.0958231   0.6085586   0.0730133), wk =   0.0740741
        k(    8) = (   0.0958231   0.6085586   0.2190398), wk =   0.0740741
        k(    9) = (   0.0958231   0.6085586   0.3650664), wk =   0.0740741
        k(   10) = (   0.0958231  -0.4979116   0.0730133), wk =   0.0740741
        k(   11) = (   0.0958231  -0.4979116   0.2190398), wk =   0.0740741
        k(   12) = (   0.0958231  -0.4979116   0.3650664), wk =   0.0740741
        k(   13) = (   0.0958231  -0.2766176   0.0730133), wk =   0.0740741
        k(   14) = (   0.0958231  -0.2766176   0.2190398), wk =   0.0740741
        k(   15) = (   0.0958231  -0.2766176   0.3650664), wk =   0.0740741
        k(   16) = (   0.0958231  -0.0553235   0.0730133), wk =   0.0370370
        k(   17) = (   0.0958231  -0.0553235   0.2190398), wk =   0.0370370
        k(   18) = (   0.0958231  -0.0553235   0.3650664), wk =   0.0370370
        k(   19) = (   0.2874694   0.4979116   0.0730133), wk =   0.0370370
        k(   20) = (   0.2874694   0.4979116   0.2190398), wk =   0.0370370
        k(   21) = (   0.2874694   0.4979116   0.3650664), wk =   0.0370370
        k(   22) = (   0.2874694   0.7192056   0.0730133), wk =   0.0740741
        k(   23) = (   0.2874694   0.7192056   0.2190398), wk =   0.0740741
        k(   24) = (   0.2874694   0.7192056   0.3650664), wk =   0.0740741
        k(   25) = (   0.2874694  -0.3872646   0.0730133), wk =   0.0740741
        k(   26) = (   0.2874694  -0.3872646   0.2190398), wk =   0.0740741
        k(   27) = (   0.2874694  -0.3872646   0.3650664), wk =   0.0740741
        k(   28) = (   0.2874694  -0.1659705   0.0730133), wk =   0.0370370
        k(   29) = (   0.2874694  -0.1659705   0.2190398), wk =   0.0370370
        k(   30) = (   0.2874694  -0.1659705   0.3650664), wk =   0.0370370
        k(   31) = (   0.4791157   0.8298527   0.0730133), wk =   0.0370370
        k(   32) = (   0.4791157   0.8298527   0.2190398), wk =   0.0370370
        k(   33) = (   0.4791157   0.8298527   0.3650664), wk =   0.0370370
        k(   34) = (   0.4791157  -0.2766176   0.0730133), wk =   0.0370370
        k(   35) = (   0.4791157  -0.2766176   0.2190398), wk =   0.0370370
        k(   36) = (   0.4791157  -0.2766176   0.3650664), wk =   0.0370370
     extrapolated charge   13.63874, renormalised to   24.00000

     total cpu time spent up to now is      225.6 secs

     per-process dynamical memory:    23.0 Mb

     Self-consistent Calculation

     iteration #  1     ecut=    80.00 Ry     beta=0.30
     Davidson diagonalization with overlap
     ethr =  1.00E-06,  avg # of iterations = 12.0

     total cpu time spent up to now is      254.1 secs

     total energy              =    -151.78244147 Ry
     Harris-Foulkes estimate   =    -156.19642896 Ry
     estimated scf accuracy    <      13.83580830 Ry

     iteration #  2     ecut=    80.00 Ry     beta=0.30
     Davidson diagonalization with overlap
     ethr =  1.00E-02,  avg # of iterations =  3.0

     total cpu time spent up to now is      267.2 secs

     total energy              =    -151.22192163 Ry
     Harris-Foulkes estimate   =    -153.32026146 Ry
     estimated scf accuracy    <       4.54812468 Ry

     iteration #  3     ecut=    80.00 Ry     beta=0.30
     Davidson diagonalization with overlap
     ethr =  1.00E-02,  avg # of iterations =  2.0

     total cpu time spent up to now is      277.4 secs

     total energy              =    -150.92940795 Ry
     Harris-Foulkes estimate   =    -151.46011800 Ry
     estimated scf accuracy    <       0.94973918 Ry

     iteration #  4     ecut=    80.00 Ry     beta=0.30
     Davidson diagonalization with overlap
     ethr =  3.96E-03,  avg # of iterations =  2.0

     total cpu time spent up to now is      288.0 secs

     total energy              =    -150.97723045 Ry
     Harris-Foulkes estimate   =    -151.02998575 Ry
     estimated scf accuracy    <       0.12988657 Ry

     iteration #  5     ecut=    80.00 Ry     beta=0.30
     Davidson diagonalization with overlap
     ethr =  5.41E-04,  avg # of iterations =  2.1

     total cpu time spent up to now is      297.4 secs

     total energy              =    -150.98230103 Ry
     Harris-Foulkes estimate   =    -150.98797237 Ry
     estimated scf accuracy    <       0.00976744 Ry

     iteration #  6     ecut=    80.00 Ry     beta=0.30
     Davidson diagonalization with overlap
     ethr =  4.07E-05,  avg # of iterations =  2.0

     total cpu time spent up to now is      309.5 secs

     total energy              =    -150.98462995 Ry
     Harris-Foulkes estimate   =    -150.98439639 Ry
     estimated scf accuracy    <       0.00021842 Ry

     iteration #  7     ecut=    80.00 Ry     beta=0.30
     Davidson diagonalization with overlap
     ethr =  9.10E-07,  avg # of iterations =  2.0

     total cpu time spent up to now is      321.8 secs

     total energy              =    -150.98441185 Ry
     Harris-Foulkes estimate   =    -150.98469982 Ry
     estimated scf accuracy    <       0.00038822 Ry

     iteration #  8     ecut=    80.00 Ry     beta=0.30
     Davidson diagonalization with overlap
     ethr =  9.10E-07,  avg # of iterations =  2.0

     total cpu time spent up to now is      334.0 secs

     total energy              =    -150.98451549 Ry
     Harris-Foulkes estimate   =    -150.98452762 Ry
     estimated scf accuracy    <       0.00002139 Ry

     iteration #  9     ecut=    80.00 Ry     beta=0.30
     Davidson diagonalization with overlap
     ethr =  8.91E-08,  avg # of iterations =  2.2

     total cpu time spent up to now is      346.3 secs

     total energy              =    -150.98450838 Ry
     Harris-Foulkes estimate   =    -150.98453889 Ry
     estimated scf accuracy    <       0.00004166 Ry

     iteration # 10     ecut=    80.00 Ry     beta=0.30
     Davidson diagonalization with overlap
     ethr =  8.91E-08,  avg # of iterations =  2.0

     total cpu time spent up to now is      358.3 secs

     End of self-consistent calculation

          k = 0.0958 0.1660 0.0730 (  4433 PWs)   bands (ev):

   -25.7990 -25.0227  -8.3223  -6.9765  -6.9084  -6.5097  -6.2255  -6.0343
     6.3055   9.3048  13.1021  13.6780

          k = 0.0958 0.1660 0.2190 (  4435 PWs)   bands (ev):

   -25.7000 -25.1320  -8.1478  -6.9193  -6.8244  -6.7471  -6.3161  -6.1177
     6.8634   9.2857  12.8644  13.8186

          k = 0.0958 0.1660 0.3651 (  4455 PWs)   bands (ev):

   -25.5250 -25.3172  -7.8082  -7.3508  -6.6439  -6.5768  -6.4706  -6.3148
     7.7868   8.7494  13.1564  13.7134

          k = 0.0958 0.3873 0.0730 (  4441 PWs)   bands (ev):

   -25.6066 -25.0560  -8.0174  -7.5069  -7.1857  -6.9394  -6.2893  -6.2479
     7.9367  10.1054  11.5355  12.1611

          k = 0.0958 0.3873 0.2190 (  4446 PWs)   bands (ev):

   -25.5337 -25.1304  -8.1909  -7.5780  -7.0074  -6.9086  -6.3811  -6.1494
     8.3166  10.2638  11.6693  11.8662

          k = 0.0958 0.3873 0.3651 (  4452 PWs)   bands (ev):

   -25.4066 -25.2590  -8.1733  -7.9376  -6.8268  -6.5984  -6.4948  -6.2137
     8.9956   9.8075  11.8294  12.0431

          k = 0.0958 0.6086 0.0730 (  4457 PWs)   bands (ev):

   -25.4102 -25.1338  -8.1061  -7.4713  -7.3459  -7.1922  -6.6118  -6.2757
     9.2908  10.2150  10.7672  11.5575

          k = 0.0958 0.6086 0.2190 (  4454 PWs)   bands (ev):

   -25.3707 -25.1681  -8.3704  -7.8891  -7.1968  -6.8215  -6.4454  -6.2773
     9.4867  10.3032  11.0988  11.5092

          k = 0.0958 0.6086 0.3651 (  4444 PWs)   bands (ev):

   -25.3039 -25.2297  -8.4550  -8.2836  -6.9593  -6.6839  -6.4122  -6.2055
     9.7980  10.1320  11.5517  11.6462

          k = 0.0958-0.4979 0.0730 (  4446 PWs)   bands (ev):

   -25.4939 -25.0937  -8.0004  -7.5953  -7.2610  -7.1221  -6.4656  -6.2657
     8.7720  10.2799  10.9467  11.7651

          k = 0.0958-0.4979 0.2190 (  4453 PWs)   bands (ev):

   -25.4390 -25.1459  -8.2861  -7.7932  -7.1278  -6.8731  -6.4173  -6.2202
     9.0393  10.4873  11.1679  11.5455

          k = 0.0958-0.4979 0.3651 (  4446 PWs)   bands (ev):

   -25.3448 -25.2374  -8.3497  -8.1637  -6.9112  -6.6524  -6.4463  -6.2030
     9.5274  10.1310  11.5478  11.6804

          k = 0.0958-0.2766 0.0730 (  4445 PWs)   bands (ev):

   -25.7152 -25.0331  -8.1797  -7.2135  -7.0648  -6.7250  -6.2381  -6.1327
     7.0430   9.7139  12.4998  12.6560

          k = 0.0958-0.2766 0.2190 (  4435 PWs)   bands (ev):

   -25.6269 -25.1277  -8.1475  -7.2580  -6.8956  -6.8607  -6.3455  -6.1068
     7.5226   9.7652  12.2768  12.7087

          k = 0.0958-0.2766 0.3651 (  4447 PWs)   bands (ev):

   -25.4717 -25.2890  -7.9759  -7.6445  -6.7282  -6.5558  -6.5192  -6.2501
     8.3458   9.2573  12.4270  12.7783

          k = 0.0958-0.0553 0.0730 (  4430 PWs)   bands (ev):

   -25.8445 -25.0192  -8.4007  -6.8570  -6.8128  -6.3430  -6.2212  -5.9948
     5.8884   9.0514  13.3635  14.6907

          k = 0.0958-0.0553 0.2190 (  4422 PWs)   bands (ev):

   -25.7400 -25.1363  -8.1587  -6.7614  -6.7350  -6.6178  -6.3019  -6.1750
     6.4919   9.0017  13.2548  14.7800

          k = 0.0958-0.0553 0.3651 (  4450 PWs)   bands (ev):

   -25.5548 -25.3341  -7.7127  -7.1491  -6.5993  -6.5834  -6.4407  -6.3797
     7.4689   8.4546  13.7098  14.4977

          k = 0.2875 0.4979 0.0730 (  4434 PWs)   bands (ev):

   -25.4142 -25.1298  -7.8341  -7.7614  -7.2390  -7.1996  -6.5825  -6.4290
     9.3627  10.6368  10.6380  11.4821

          k = 0.2875 0.4979 0.2190 (  4442 PWs)   bands (ev):

   -25.3737 -25.1653  -8.1442  -7.9392  -7.3961  -6.7241  -6.5888  -6.2546
     9.5970  11.0207  11.0210  11.1290

          k = 0.2875 0.4979 0.3651 (  4447 PWs)   bands (ev):

   -25.3052 -25.2288  -8.2985  -8.2002  -7.2122  -6.9054  -6.2969  -6.1356
    10.0227  10.5723  11.4917  11.4954

          k = 0.2875 0.7192 0.0730 (  4440 PWs)   bands (ev):

   -25.3286 -25.1833  -7.9356  -7.6193  -7.3948  -7.0949  -6.7482  -6.4810
     9.7276  10.5664  10.7306  11.3113

          k = 0.2875 0.7192 0.2190 (  4450 PWs)   bands (ev):

   -25.3058 -25.1993  -8.1313  -7.9420  -7.5930  -6.6887  -6.5790  -6.3369
     9.9150  10.8710  11.1063  11.2158

          k = 0.2875 0.7192 0.3651 (  4441 PWs)   bands (ev):

   -25.2687 -25.2297  -8.3109  -8.2404  -7.3458  -7.0020  -6.2301  -6.1389
    10.2495  10.6482  11.5603  11.6027

          k = 0.2875-0.3873 0.0730 (  4442 PWs)   bands (ev):

   -25.5142 -25.0851  -7.8979  -7.6520  -7.3081  -7.0320  -6.4208  -6.3374
     8.6709  10.4022  10.9945  11.7945

          k = 0.2875-0.3873 0.2190 (  4438 PWs)   bands (ev):

   -25.4558 -25.1414  -8.1859  -7.7907  -7.1767  -6.8321  -6.4899  -6.1848
     8.9798  10.6700  11.2683  11.4312

          k = 0.2875-0.3873 0.3651 (  4444 PWs)   bands (ev):

   -25.3552 -25.2401  -8.2589  -8.0952  -7.0140  -6.7511  -6.3926  -6.1610
     9.5401  10.2480  11.5500  11.6690

          k = 0.2875-0.1660 0.0730 (  4444 PWs)   bands (ev):

   -25.6771 -25.0400  -8.1205  -7.3720  -7.0003  -6.8902  -6.2155  -6.1872
     7.3575   9.8531  12.1083  12.4765

          k = 0.2875-0.1660 0.2190 (  4445 PWs)   bands (ev):

   -25.5940 -25.1275  -8.1684  -7.3740  -6.9343  -6.8997  -6.3255  -6.1312
     7.7994   9.9392  12.0506  12.3530

          k = 0.2875-0.1660 0.3651 (  4452 PWs)   bands (ev):

   -25.4484 -25.2776  -8.0612  -7.7651  -6.7224  -6.5634  -6.5123  -6.2562
     8.5707   9.4489  12.1800  12.4722

          k = 0.4791 0.8299 0.0730 (  4450 PWs)   bands (ev):

   -25.3628 -25.1609  -8.0455  -7.4783  -7.4138  -7.1577  -6.6927  -6.3817
     9.5806  10.3772  10.7281  11.4138

          k = 0.4791 0.8299 0.2190 (  4439 PWs)   bands (ev):

   -25.3327 -25.1848  -8.2840  -7.8994  -7.4221  -6.6816  -6.5818  -6.2971
     9.7662  10.5212  11.1083  11.3853

          k = 0.4791 0.8299 0.3651 (  4442 PWs)   bands (ev):

   -25.2827 -25.2285  -8.3992  -8.2667  -7.1761  -6.8628  -6.3016  -6.1570
    10.0652  10.3873  11.5741  11.6036

          k = 0.4791-0.2766 0.0730 (  4457 PWs)   bands (ev):

   -25.4570 -25.1104  -8.0875  -7.5228  -7.2979  -7.1629  -6.5320  -6.2311
     8.9851  10.1847  10.8551  11.6861

          k = 0.4791-0.2766 0.2190 (  4465 PWs)   bands (ev):

   -25.4087 -25.1548  -8.3667  -7.8463  -7.0455  -6.9404  -6.3640  -6.2730
     9.2057  10.3129  11.1170  11.5689

          k = 0.4791-0.2766 0.3651 (  4445 PWs)   bands (ev):

   -25.3263 -25.2333  -8.4352  -8.2459  -6.8371  -6.5879  -6.4919  -6.2412
     9.5940  10.0504  11.5454  11.6747

!    total energy              =    -150.98451788 Ry
     Harris-Foulkes estimate   =    -150.98451807 Ry
     estimated scf accuracy    <       0.00000025 Ry

     The total energy is the sum of the following terms:

     one-electron contribution =     -19.03980771 Ry
     hartree contribution      =      21.76286863 Ry
     xc contribution           =     -24.55026840 Ry
     ewald contribution        =    -129.15731040 Ry

     convergence has been achieved in  10 iterations

     Forces acting on atoms (Ry/au):

     atom    1 type  2   force =     0.00000000    0.00000000    0.00000000
     atom    2 type  2   force =    -0.00000000   -0.00000000   -0.00000000
     atom    3 type  1   force =     0.00000000   -0.00000000    0.00000000
     atom    4 type  1   force =     0.00000000   -0.00000000   -0.00000000
     atom    5 type  1   force =     0.00000000    0.00000000    0.00000000
     atom    6 type  1   force =     0.00000000    0.00000000    0.00000000

     Total force =     0.000000     Total SCF correction =     0.000000


     entering subroutine stress ...

          total   stress  (Ry/bohr**3)                   (kbar)     P= 1196.42
   0.00868274  -0.00000000   0.00000000       1277.27     -0.00      0.00
   0.00000000   0.00868274  -0.00000000          0.00   1277.27     -0.00
   0.00000000   0.00000000   0.00703390          0.00      0.00   1034.72


     number of scf cycles    =   2
     number of bfgs steps    =   1

     enthalpy old            =    -147.9725759639 Ry
     enthalpy new            =    -148.6781945748 Ry

     CASE: enthalpy_new < enthalpy_old

     new trust radius        =       0.1590555753 bohr
     new conv_thr            =       0.0000000100 Ry

     new unit-cell volume =    225.39702 a.u.^3 (    33.40039 Ang^3 )

CELL_PARAMETERS (alat=  6.86950000)
   0.860992499   0.000000000   0.000000000
  -0.430496250   0.745641377   0.000000000
   0.000000000  -0.000000000   1.083037297

ATOMIC_POSITIONS (crystal)
Ca       0.333333333   0.666666667   0.250000000
Ca       0.666666667   0.333333333   0.750000000
H        0.333333333   0.666666667   0.750000000
H        0.666666667   0.333333333   0.250000000
H       -0.000000000  -0.000000000   0.000000000
H        0.000000000   0.000000000   0.500000000



     Writing output data file CaH2_ambient.save
     NEW-OLD atomic charge density approx. for the potential
     NEW k-points:
        k(    1) = (   0.0967875   0.1676409   0.0769441), wk =   0.0370370
        k(    2) = (   0.0967875   0.1676409   0.2308323), wk =   0.0370370
        k(    3) = (   0.0967875   0.1676409   0.3847205), wk =   0.0370370
        k(    4) = (   0.0967875   0.3911621   0.0769441), wk =   0.0740741
        k(    5) = (   0.0967875   0.3911621   0.2308323), wk =   0.0740741
        k(    6) = (   0.0967875   0.3911621   0.3847205), wk =   0.0740741
        k(    7) = (   0.0967875   0.6146833   0.0769441), wk =   0.0740741
        k(    8) = (   0.0967875   0.6146833   0.2308323), wk =   0.0740741
        k(    9) = (   0.0967875   0.6146833   0.3847205), wk =   0.0740741
        k(   10) = (   0.0967875  -0.5029227   0.0769441), wk =   0.0740741
        k(   11) = (   0.0967875  -0.5029227   0.2308323), wk =   0.0740741
        k(   12) = (   0.0967875  -0.5029227   0.3847205), wk =   0.0740741
        k(   13) = (   0.0967875  -0.2794015   0.0769441), wk =   0.0740741
        k(   14) = (   0.0967875  -0.2794015   0.2308323), wk =   0.0740741
        k(   15) = (   0.0967875  -0.2794015   0.3847205), wk =   0.0740741
        k(   16) = (   0.0967875  -0.0558803   0.0769441), wk =   0.0370370
        k(   17) = (   0.0967875  -0.0558803   0.2308323), wk =   0.0370370
        k(   18) = (   0.0967875  -0.0558803   0.3847205), wk =   0.0370370
        k(   19) = (   0.2903626   0.5029227   0.0769441), wk =   0.0370370
        k(   20) = (   0.2903626   0.5029227   0.2308323), wk =   0.0370370
        k(   21) = (   0.2903626   0.5029227   0.3847205), wk =   0.0370370
        k(   22) = (   0.2903626   0.7264439   0.0769441), wk =   0.0740741
        k(   23) = (   0.2903626   0.7264439   0.2308323), wk =   0.0740741
        k(   24) = (   0.2903626   0.7264439   0.3847205), wk =   0.0740741
        k(   25) = (   0.2903626  -0.3911621   0.0769441), wk =   0.0740741
        k(   26) = (   0.2903626  -0.3911621   0.2308323), wk =   0.0740741
        k(   27) = (   0.2903626  -0.3911621   0.3847205), wk =   0.0740741
        k(   28) = (   0.2903626  -0.1676409   0.0769441), wk =   0.0370370
        k(   29) = (   0.2903626  -0.1676409   0.2308323), wk =   0.0370370
        k(   30) = (   0.2903626  -0.1676409   0.3847205), wk =   0.0370370
        k(   31) = (   0.4839376   0.8382046   0.0769441), wk =   0.0370370
        k(   32) = (   0.4839376   0.8382046   0.2308323), wk =   0.0370370
        k(   33) = (   0.4839376   0.8382046   0.3847205), wk =   0.0370370
        k(   34) = (   0.4839376  -0.2794015   0.0769441), wk =   0.0370370
        k(   35) = (   0.4839376  -0.2794015   0.2308323), wk =   0.0370370
        k(   36) = (   0.4839376  -0.2794015   0.3847205), wk =   0.0370370
     extrapolated charge   22.49688, renormalised to   24.00000

     total cpu time spent up to now is      444.0 secs

     per-process dynamical memory:    23.0 Mb

     Self-consistent Calculation

     iteration #  1     ecut=    80.00 Ry     beta=0.30
     Davidson diagonalization with overlap
     ethr =  1.00E-06,  avg # of iterations =  5.1

     total cpu time spent up to now is      463.6 secs

     total energy              =    -150.78380742 Ry
     Harris-Foulkes estimate   =    -151.39591157 Ry
     estimated scf accuracy    <       0.11396575 Ry

     iteration #  2     ecut=    80.00 Ry     beta=0.30
     Davidson diagonalization with overlap
     ethr =  4.75E-04,  avg # of iterations =  2.0

     total cpu time spent up to now is      475.9 secs

     total energy              =    -150.83975458 Ry
     Harris-Foulkes estimate   =    -150.84178001 Ry
     estimated scf accuracy    <       0.00756091 Ry

     iteration #  3     ecut=    80.00 Ry     beta=0.30
     Davidson diagonalization with overlap
     ethr =  3.15E-05,  avg # of iterations =  1.0

     total cpu time spent up to now is      484.5 secs

     total energy              =    -150.83706437 Ry
     Harris-Foulkes estimate   =    -150.83991958 Ry
     estimated scf accuracy    <       0.00391416 Ry

     iteration #  4     ecut=    80.00 Ry     beta=0.30
     Davidson diagonalization with overlap
     ethr =  1.63E-05,  avg # of iterations =  2.1

     total cpu time spent up to now is      496.6 secs

     total energy              =    -150.83810258 Ry
     Harris-Foulkes estimate   =    -150.83813707 Ry
     estimated scf accuracy    <       0.00016129 Ry

     iteration #  5     ecut=    80.00 Ry     beta=0.30
     Davidson diagonalization with overlap
     ethr =  6.72E-07,  avg # of iterations =  1.1

     total cpu time spent up to now is      505.2 secs

     total energy              =    -150.83810616 Ry
     Harris-Foulkes estimate   =    -150.83811055 Ry
     estimated scf accuracy    <       0.00002850 Ry

     iteration #  6     ecut=    80.00 Ry     beta=0.30
     Davidson diagonalization with overlap
     ethr =  1.19E-07,  avg # of iterations =  2.0

     total cpu time spent up to now is      516.6 secs

     total energy              =    -150.83810962 Ry
     Harris-Foulkes estimate   =    -150.83811007 Ry
     estimated scf accuracy    <       0.00000109 Ry

     iteration #  7     ecut=    80.00 Ry     beta=0.30
     Davidson diagonalization with overlap
     ethr =  4.53E-09,  avg # of iterations =  2.0

     total cpu time spent up to now is      526.6 secs

     total energy              =    -150.83810969 Ry
     Harris-Foulkes estimate   =    -150.83810973 Ry
     estimated scf accuracy    <       0.00000014 Ry

     iteration #  8     ecut=    80.00 Ry     beta=0.30
     Davidson diagonalization with overlap
     ethr =  5.90E-10,  avg # of iterations =  2.0

     total cpu time spent up to now is      538.7 secs

     End of self-consistent calculation

          k = 0.0968 0.1676 0.0769 (  4433 PWs)   bands (ev):

   -24.7936 -23.7322  -7.4054  -5.9148  -5.8546  -5.2822  -4.9412  -4.6747
     7.4368  10.1347  14.5745  14.7788

          k = 0.0968 0.1676 0.2308 (  4435 PWs)   bands (ev):

   -24.6597 -23.8832  -7.2280  -5.8196  -5.7026  -5.6266  -5.0640  -4.7757
     8.0681  10.3613  14.2427  14.8198

          k = 0.0968 0.1676 0.3847 (  4455 PWs)   bands (ev):

   -24.4220 -24.1380  -6.8561  -6.3229  -5.5069  -5.3685  -5.2733  -5.0265
     9.0822  10.0563  14.3122  14.8321

          k = 0.0968 0.3912 0.0769 (  4441 PWs)   bands (ev):

   -24.5529 -23.7986  -7.0790  -6.4868  -6.1319  -5.7994  -4.9846  -4.9421
     9.1045  10.9801  12.4570  13.6421

          k = 0.0968 0.3912 0.2308 (  4446 PWs)   bands (ev):

   -24.4526 -23.9000  -7.3294  -6.5733  -5.9418  -5.7306  -5.1202  -4.7845
     9.5092  11.3699  12.7655  13.0559

          k = 0.0968 0.3912 0.3847 (  4452 PWs)   bands (ev):

   -24.2781 -24.0757  -7.3252  -7.0337  -5.7159  -5.4058  -5.2042  -4.8524
    10.2337  11.0985  12.9516  13.2090

          k = 0.0968 0.6147 0.0769 (  4457 PWs)   bands (ev):

   -24.3000 -23.9213  -7.1886  -6.4280  -6.2377  -6.1517  -5.3646  -4.9596
    10.1552  11.3215  11.8755  12.9394

          k = 0.0968 0.6147 0.2308 (  4454 PWs)   bands (ev):

   -24.2441 -23.9662  -7.5352  -6.9359  -6.1707  -5.6078  -5.1756  -4.9240
    10.4300  11.4325  12.2844  12.8958

          k = 0.0968 0.6147 0.3847 (  4444 PWs)   bands (ev):

   -24.1506 -24.0487  -7.6530  -7.4410  -5.8676  -5.5024  -5.0848  -4.8224
    10.8265  11.2276  12.9084  13.0830

          k = 0.0968-0.5029 0.0769 (  4446 PWs)   bands (ev):

   -24.4089 -23.8603  -7.0740  -6.5687  -6.1773  -6.0372  -5.1946  -4.9535
     9.8481  11.2040  11.9796  13.1786

          k = 0.0968-0.5029 0.2308 (  4453 PWs)   bands (ev):

   -24.3325 -23.9303  -7.4432  -6.8231  -6.0866  -5.6703  -5.1523  -4.8603
    10.1354  11.5831  12.2724  12.8633

          k = 0.0968-0.5029 0.3847 (  4446 PWs)   bands (ev):

   -24.2019 -24.0544  -7.5327  -7.3000  -5.8124  -5.4670  -5.1301  -4.8264
    10.6589  11.3072  12.7924  12.9985

          k = 0.0968-0.2794 0.0769 (  4445 PWs)   bands (ev):

   -24.6893 -23.7561  -7.2496  -6.1723  -6.0185  -5.5400  -4.9433  -4.7947
     8.2054  10.5660  13.3847  14.2332

          k = 0.0968-0.2794 0.2308 (  4435 PWs)   bands (ev):

   -24.5692 -23.8860  -7.2563  -6.2049  -5.7785  -5.7406  -5.0888  -4.7459
     8.7353  10.8619  13.5666  13.7030

          k = 0.0968-0.2794 0.3847 (  4447 PWs)   bands (ev):

   -24.3575 -24.1075  -7.0803  -6.6840  -5.6033  -5.3350  -5.2896  -4.9177
     9.6297  10.5733  13.5305  13.8821

          k = 0.0968-0.0559 0.0769 (  4430 PWs)   bands (ev):

   -24.8498 -23.7221  -7.4916  -5.7882  -5.7447  -5.0876  -4.9443  -4.6265
     6.9963   9.8676  15.1034  15.6158

          k = 0.0968-0.0559 0.2308 (  4422 PWs)   bands (ev):

   -24.7089 -23.8843  -7.2228  -5.6545  -5.6398  -5.4271  -5.0538  -4.8623
     7.6876  10.0632  14.7100  15.8215

          k = 0.0968-0.0559 0.3847 (  4450 PWs)   bands (ev):

   -24.4579 -24.1564  -6.7176  -6.0619  -5.4564  -5.4128  -5.2418  -5.1369
     8.7662   9.7529  14.9403  15.6765

          k = 0.2904 0.5029 0.0769 (  4434 PWs)   bands (ev):

   -24.3056 -23.9155  -6.9099  -6.7869  -6.1186  -6.1107  -5.3364  -5.1179
    10.4680  11.5954  11.6416  12.8162

          k = 0.2904 0.5029 0.2308 (  4442 PWs)   bands (ev):

   -24.2483 -23.9622  -7.2808  -7.0137  -6.4079  -5.4609  -5.3416  -4.8992
    10.7084  12.1094  12.1565  12.4088

          k = 0.2904 0.5029 0.3847 (  4447 PWs)   bands (ev):

   -24.1524 -24.0475  -7.4818  -7.3545  -6.1628  -5.7528  -4.9375  -4.7393
    11.1651  11.7780  12.7626  12.7851

          k = 0.2904 0.7264 0.0769 (  4440 PWs)   bands (ev):

   -24.1926 -23.9932  -7.0330  -6.6240  -6.3304  -5.9486  -5.5308  -5.1678
    10.7160  11.6649  11.7523  12.6052

          k = 0.2904 0.7264 0.2308 (  4450 PWs)   bands (ev):

   -24.1591 -24.0129  -7.2608  -7.0253  -6.6392  -5.4386  -5.2952  -4.9942
    10.9448  12.0569  12.2545  12.4903

          k = 0.2904 0.7264 0.3847 (  4441 PWs)   bands (ev):

   -24.1059 -24.0523  -7.4981  -7.4102  -6.3146  -5.8609  -4.8511  -4.7378
    11.3463  11.8196  12.9103  12.9391

          k = 0.2904-0.3912 0.0769 (  4442 PWs)   bands (ev):

   -24.4351 -23.8468  -6.9506  -6.6770  -6.2215  -5.9164  -5.1424  -5.0299
     9.8318  11.3111  11.9373  13.1974

          k = 0.2904-0.3912 0.2308 (  4438 PWs)   bands (ev):

   -24.3540 -23.9227  -7.3287  -6.8317  -6.1485  -5.6072  -5.2362  -4.8212
    10.1511  11.7892  12.3347  12.6667

          k = 0.2904-0.3912 0.3847 (  4444 PWs)   bands (ev):

   -24.2149 -24.0568  -7.4307  -7.2239  -5.9335  -5.5785  -5.0651  -4.7790
    10.7406  11.5121  12.7199  12.8877

          k = 0.2904-0.1676 0.0769 (  4444 PWs)   bands (ev):

   -24.6417 -23.7695  -7.1872  -6.3390  -5.9691  -5.7057  -4.9152  -4.8606
     8.5225  10.7105  13.0115  14.0205

          k = 0.2904-0.1676 0.2308 (  4445 PWs)   bands (ev):

   -24.5282 -23.8896  -7.2920  -6.3291  -5.8354  -5.7679  -5.0643  -4.7679
     9.0042  11.0375  13.2618  13.4276

          k = 0.2904-0.1676 0.3847 (  4452 PWs)   bands (ev):

   -24.3292 -24.0953  -7.1870  -6.8275  -5.5986  -5.3166  -5.2938  -4.9130
     9.8369  10.7552  13.2872  13.5984

          k = 0.4839 0.8382 0.0769 (  4450 PWs)   bands (ev):

   -24.2378 -23.9611  -7.1305  -6.4924  -6.3198  -6.0460  -5.4598  -5.0686
    10.4711  11.5145  11.7985  12.7455

          k = 0.4839 0.8382 0.2308 (  4439 PWs)   bands (ev):

   -24.1945 -23.9915  -7.4355  -6.9606  -6.4397  -5.4279  -5.3243  -4.9471
    10.7299  11.6850  12.2775  12.7320

          k = 0.4839 0.8382 0.3847 (  4442 PWs)   bands (ev):

   -24.1238 -24.0494  -7.5932  -7.4307  -6.1194  -5.7047  -4.9451  -4.7619
    11.1153  11.5125  12.9235  13.0197

          k = 0.4839-0.2794 0.0769 (  4457 PWs)   bands (ev):

   -24.3610 -23.8860  -7.1684  -6.4640  -6.1620  -6.1612  -5.2721  -4.9145
     9.9355  11.1929  11.9536  13.0989

          k = 0.4839-0.2794 0.2308 (  4465 PWs)   bands (ev):

   -24.2934 -23.9450  -7.5332  -6.8806  -6.0063  -5.7378  -5.0950  -4.9127
    10.2079  11.4068  12.2782  12.9474

          k = 0.4839-0.2794 0.3847 (  4445 PWs)   bands (ev):

   -24.1788 -24.0510  -7.6293  -7.3936  -5.7300  -5.3969  -5.1780  -4.8648
    10.6545  11.1588  12.8657  13.0787

!    total energy              =    -150.83810972 Ry
     Harris-Foulkes estimate   =    -150.83810972 Ry
     estimated scf accuracy    <          1.1E-09 Ry

     The total energy is the sum of the following terms:

     one-electron contribution =     -14.54176401 Ry
     hartree contribution      =      20.63502455 Ry
     xc contribution           =     -24.71742701 Ry
     ewald contribution        =    -132.21394326 Ry

     convergence has been achieved in   8 iterations

     Forces acting on atoms (Ry/au):

     atom    1 type  2   force =     0.00000000   -0.00000000    0.00000000
     atom    2 type  2   force =     0.00000000    0.00000000   -0.00000000
     atom    3 type  1   force =     0.00000000   -0.00000000   -0.00000000
     atom    4 type  1   force =     0.00000000    0.00000000    0.00000000
     atom    5 type  1   force =    -0.00000000   -0.00000000   -0.00000000
     atom    6 type  1   force =     0.00000000    0.00000000    0.00000000

     Total force =     0.000000     Total SCF correction =     0.000000


     entering subroutine stress ...

          total   stress  (Ry/bohr**3)                   (kbar)     P= 1489.90
   0.01030401  -0.00000000  -0.00000000       1515.77     -0.00     -0.00
  -0.00000000   0.01030401   0.00000000         -0.00   1515.77      0.00
   0.00000000  -0.00000000   0.00977645          0.00     -0.00   1438.17


     number of scf cycles    =   3
     number of bfgs steps    =   2

     enthalpy old            =    -148.6781945748 Ry
     enthalpy new            =    -148.6930044672 Ry

     CASE: enthalpy_new < enthalpy_old

     new trust radius        =       0.0277219495 bohr
     new conv_thr            =       0.0000000100 Ry

     new unit-cell volume =    229.48609 a.u.^3 (    34.00633 Ang^3 )

CELL_PARAMETERS (alat=  6.86950000)
   0.868941619  -0.000000000  -0.000000000
  -0.434470810   0.752525517   0.000000000
  -0.000000000  -0.000000000   1.082602805

ATOMIC_POSITIONS (crystal)
Ca       0.333333333   0.666666667   0.250000000
Ca       0.666666667   0.333333333   0.750000000
H        0.333333333   0.666666667   0.750000000
H        0.666666667   0.333333333   0.250000000
H       -0.000000000  -0.000000000   0.000000000
H        0.000000000   0.000000000   0.500000000



     Writing output data file CaH2_ambient.save
     NEW-OLD atomic charge density approx. for the potential
     NEW k-points:
        k(    1) = (   0.0959021   0.1661073   0.0769750), wk =   0.0370370
        k(    2) = (   0.0959021   0.1661073   0.2309250), wk =   0.0370370
        k(    3) = (   0.0959021   0.1661073   0.3848749), wk =   0.0370370
        k(    4) = (   0.0959021   0.3875838   0.0769750), wk =   0.0740741
        k(    5) = (   0.0959021   0.3875838   0.2309250), wk =   0.0740741
        k(    6) = (   0.0959021   0.3875838   0.3848749), wk =   0.0740741
        k(    7) = (   0.0959021   0.6090602   0.0769750), wk =   0.0740741
        k(    8) = (   0.0959021   0.6090602   0.2309250), wk =   0.0740741
        k(    9) = (   0.0959021   0.6090602   0.3848749), wk =   0.0740741
        k(   10) = (   0.0959021  -0.4983220   0.0769750), wk =   0.0740741
        k(   11) = (   0.0959021  -0.4983220   0.2309250), wk =   0.0740741
        k(   12) = (   0.0959021  -0.4983220   0.3848749), wk =   0.0740741
        k(   13) = (   0.0959021  -0.2768455   0.0769750), wk =   0.0740741
        k(   14) = (   0.0959021  -0.2768455   0.2309250), wk =   0.0740741
        k(   15) = (   0.0959021  -0.2768455   0.3848749), wk =   0.0740741
        k(   16) = (   0.0959021  -0.0553691   0.0769750), wk =   0.0370370
        k(   17) = (   0.0959021  -0.0553691   0.2309250), wk =   0.0370370
        k(   18) = (   0.0959021  -0.0553691   0.3848749), wk =   0.0370370
        k(   19) = (   0.2877063   0.4983220   0.0769750), wk =   0.0370370
        k(   20) = (   0.2877063   0.4983220   0.2309250), wk =   0.0370370
        k(   21) = (   0.2877063   0.4983220   0.3848749), wk =   0.0370370
        k(   22) = (   0.2877063   0.7197984   0.0769750), wk =   0.0740741
        k(   23) = (   0.2877063   0.7197984   0.2309250), wk =   0.0740741
        k(   24) = (   0.2877063   0.7197984   0.3848749), wk =   0.0740741
        k(   25) = (   0.2877063  -0.3875838   0.0769750), wk =   0.0740741
        k(   26) = (   0.2877063  -0.3875838   0.2309250), wk =   0.0740741
        k(   27) = (   0.2877063  -0.3875838   0.3848749), wk =   0.0740741
        k(   28) = (   0.2877063  -0.1661073   0.0769750), wk =   0.0370370
        k(   29) = (   0.2877063  -0.1661073   0.2309250), wk =   0.0370370
        k(   30) = (   0.2877063  -0.1661073   0.3848749), wk =   0.0370370
        k(   31) = (   0.4795105   0.8305366   0.0769750), wk =   0.0370370
        k(   32) = (   0.4795105   0.8305366   0.2309250), wk =   0.0370370
        k(   33) = (   0.4795105   0.8305366   0.3848749), wk =   0.0370370
        k(   34) = (   0.4795105  -0.2768455   0.0769750), wk =   0.0370370
        k(   35) = (   0.4795105  -0.2768455   0.2309250), wk =   0.0370370
        k(   36) = (   0.4795105  -0.2768455   0.3848749), wk =   0.0370370
     extrapolated charge   24.35637, renormalised to   24.00000

     total cpu time spent up to now is      624.3 secs

     per-process dynamical memory:    23.0 Mb

     Self-consistent Calculation

     iteration #  1     ecut=    80.00 Ry     beta=0.30
     Davidson diagonalization with overlap
     ethr =  1.00E-06,  avg # of iterations =  4.1

     total cpu time spent up to now is      641.7 secs

     total energy              =    -150.87519534 Ry
     Harris-Foulkes estimate   =    -150.73241759 Ry
     estimated scf accuracy    <       0.00547679 Ry

     iteration #  2     ecut=    80.00 Ry     beta=0.30
     Davidson diagonalization with overlap
     ethr =  2.28E-05,  avg # of iterations =  2.0

     total cpu time spent up to now is      653.9 secs

     total energy              =    -150.87874149 Ry
     Harris-Foulkes estimate   =    -150.87878267 Ry
     estimated scf accuracy    <       0.00019169 Ry

     iteration #  3     ecut=    80.00 Ry     beta=0.30
     Davidson diagonalization with overlap
     ethr =  7.99E-07,  avg # of iterations =  1.1

     total cpu time spent up to now is      662.5 secs

     total energy              =    -150.87867743 Ry
     Harris-Foulkes estimate   =    -150.87874603 Ry
     estimated scf accuracy    <       0.00010983 Ry

     iteration #  4     ecut=    80.00 Ry     beta=0.30
     Davidson diagonalization with overlap
     ethr =  4.58E-07,  avg # of iterations =  2.1

     total cpu time spent up to now is      674.1 secs

     total energy              =    -150.87870070 Ry
     Harris-Foulkes estimate   =    -150.87870059 Ry
     estimated scf accuracy    <       0.00000195 Ry

     iteration #  5     ecut=    80.00 Ry     beta=0.30
     Davidson diagonalization with overlap
     ethr =  8.14E-09,  avg # of iterations =  1.5

     total cpu time spent up to now is      682.9 secs

     total energy              =    -150.87870084 Ry
     Harris-Foulkes estimate   =    -150.87870077 Ry
     estimated scf accuracy    <       0.00000082 Ry

     iteration #  6     ecut=    80.00 Ry     beta=0.30
     Davidson diagonalization with overlap
     ethr =  3.42E-09,  avg # of iterations =  1.9

     total cpu time spent up to now is      691.7 secs

     End of self-consistent calculation

          k = 0.0959 0.1661 0.0770 (  4433 PWs)   bands (ev):

   -25.0868 -24.0682  -7.6569  -6.2426  -6.1918  -5.6170  -5.2930  -5.0390
     7.1278   9.8651  14.2382  14.5252

          k = 0.0959 0.1661 0.2309 (  4435 PWs)   bands (ev):

   -24.9575 -24.2123  -7.4937  -6.1464  -6.0337  -5.9650  -5.4140  -5.1336
     7.7608  10.0854  13.9867  14.4982

          k = 0.0959 0.1661 0.3849 (  4455 PWs)   bands (ev):

   -24.7287 -24.4561  -7.1427  -6.6299  -5.8512  -5.7073  -5.6203  -5.3752
     8.7799   9.7645  14.0550  14.5458

          k = 0.0959 0.3876 0.0770 (  4441 PWs)   bands (ev):

   -24.8605 -24.1373  -7.3471  -6.7701  -6.4436  -6.1108  -5.3334  -5.2888
     8.7596  10.6744  12.1403  13.4343

          k = 0.0959 0.3876 0.2309 (  4446 PWs)   bands (ev):

   -24.7640 -24.2341  -7.5935  -6.8559  -6.2685  -6.0425  -5.4619  -5.1345
     9.1776  11.0629  12.4788  12.8015

          k = 0.0959 0.3876 0.3849 (  4452 PWs)   bands (ev):

   -24.5963 -24.4022  -7.5921  -7.3082  -6.0464  -5.7414  -5.5351  -5.1973
     9.9205  10.7976  12.6860  12.9152

          k = 0.0959 0.6091 0.0770 (  4457 PWs)   bands (ev):

   -24.6223 -24.2585  -7.4362  -6.7224  -6.5224  -6.4621  -5.6938  -5.3008
     9.8851  10.9756  11.4883  12.7524

          k = 0.0959 0.6091 0.2309 (  4454 PWs)   bands (ev):

   -24.5684 -24.3015  -7.7817  -7.2019  -6.4849  -5.9229  -5.5099  -5.2633
    10.1602  11.1665  11.9163  12.5941

          k = 0.0959 0.6091 0.3849 (  4444 PWs)   bands (ev):

   -24.4785 -24.3806  -7.9005  -7.6953  -6.1884  -5.8305  -5.4162  -5.1635
    10.5718  10.9987  12.5464  12.7139

          k = 0.0959-0.4983 0.0770 (  4446 PWs)   bands (ev):

   -24.7250 -24.1989  -7.3340  -6.8507  -6.4831  -6.3372  -5.5337  -5.2964
     9.5238  10.8872  11.6287  12.9862

          k = 0.0959-0.4983 0.2309 (  4453 PWs)   bands (ev):

   -24.6514 -24.2657  -7.6979  -7.0939  -6.4052  -5.9823  -5.4897  -5.2042
     9.8260  11.2942  11.9573  12.5808

          k = 0.0959-0.4983 0.3849 (  4446 PWs)   bands (ev):

   -24.5259 -24.3845  -7.7877  -7.5614  -6.1367  -5.7979  -5.4608  -5.1691
    10.3739  11.0493  12.4732  12.6619

          k = 0.0959-0.2768 0.0770 (  4445 PWs)   bands (ev):

   -24.9888 -24.0936  -7.5093  -6.4793  -6.3412  -5.8633  -5.2920  -5.1533
     7.8746  10.2761  13.0688  14.0022

          k = 0.0959-0.2768 0.2309 (  4435 PWs)   bands (ev):

   -24.8730 -24.2176  -7.5237  -6.5071  -6.1144  -6.0591  -5.4349  -5.1011
     8.4112  10.5669  13.3233  13.4005

          k = 0.0959-0.2768 0.3849 (  4447 PWs)   bands (ev):

   -24.6694 -24.4295  -7.3590  -6.9753  -5.9413  -5.6763  -5.6234  -5.2648
     9.3155  10.2682  13.2796  13.6020

          k = 0.0959-0.0554 0.0770 (  4430 PWs)   bands (ev):

   -25.1395 -24.0570  -7.7386  -6.1276  -6.0894  -5.4330  -5.2979  -4.9932
     6.7020   9.6116  14.8359  15.2524

          k = 0.0959-0.0554 0.2309 (  4422 PWs)   bands (ev):

   -25.0035 -24.2118  -7.4861  -5.9950  -5.9856  -5.7650  -5.4060  -5.2196
     7.3921   9.8000  14.4421  15.4780

          k = 0.0959-0.0554 0.3849 (  4450 PWs)   bands (ev):

   -24.7617 -24.4723  -7.0069  -6.3785  -5.8040  -5.7572  -5.5918  -5.4865
     8.4732   9.4716  14.6745  15.3792

          k = 0.2877 0.4983 0.0770 (  4434 PWs)   bands (ev):

   -24.6273 -24.2534  -7.1787  -7.0639  -6.4136  -6.4111  -5.6696  -5.4440
    10.1153  11.2551  11.3043  12.6425

          k = 0.2877 0.4983 0.2309 (  4442 PWs)   bands (ev):

   -24.5722 -24.2979  -7.5453  -7.2778  -6.7077  -5.7759  -5.6641  -5.2413
    10.3738  11.7796  11.8206  12.1898

          k = 0.2877 0.4983 0.3849 (  4447 PWs)   bands (ev):

   -24.4800 -24.3795  -7.7421  -7.6165  -6.4632  -6.0615  -5.2754  -5.0856
    10.8603  11.5139  12.4335  12.4534

          k = 0.2877 0.7198 0.0770 (  4440 PWs)   bands (ev):

   -24.5201 -24.3288  -7.2963  -6.9070  -6.6178  -6.2533  -5.8539  -5.4884
    10.3881  11.2999  11.3945  12.4391

          k = 0.2877 0.7198 0.2309 (  4450 PWs)   bands (ev):

   -24.4879 -24.3475  -7.5227  -7.2940  -6.9249  -5.7500  -5.6201  -5.3309
    10.6264  11.7538  11.9079  12.2233

          k = 0.2877 0.7198 0.3849 (  4441 PWs)   bands (ev):

   -24.4367 -24.3852  -7.7575  -7.6721  -6.6042  -6.1612  -5.1917  -5.0829
    11.0524  11.5664  12.5593  12.5852

          k = 0.2877-0.3876 0.0770 (  4442 PWs)   bands (ev):

   -24.7496 -24.1857  -7.2223  -6.9570  -6.5142  -6.2263  -5.4846  -5.3661
     9.4762  10.9886  11.6175  13.0079

          k = 0.2877-0.3876 0.2309 (  4438 PWs)   bands (ev):

   -24.6716 -24.2582  -7.5919  -7.1033  -6.4631  -5.9201  -5.5673  -5.1683
     9.8126  11.4664  12.0356  12.4293

          k = 0.2877-0.3876 0.3849 (  4444 PWs)   bands (ev):

   -24.5379 -24.3863  -7.6929  -7.4904  -6.2495  -5.9006  -5.3997  -5.1253
    10.4276  11.2220  12.4316  12.5797

          k = 0.2877-0.1661 0.0770 (  4444 PWs)   bands (ev):

   -24.9440 -24.1076  -7.4503  -6.6309  -6.3027  -6.0133  -5.2655  -5.2161
     8.1870  10.4160  12.6950  13.7978

          k = 0.2877-0.1661 0.2309 (  4445 PWs)   bands (ev):

   -24.8347 -24.2222  -7.5582  -6.6225  -6.1709  -6.0809  -5.4120  -5.1201
     8.6781  10.7392  12.9883  13.1564

          k = 0.2877-0.1661 0.3849 (  4452 PWs)   bands (ev):

   -24.6433 -24.4190  -7.4605  -7.1117  -5.9376  -5.6600  -5.6228  -5.2573
     9.5236  10.4514  13.0318  13.3133

          k = 0.4795 0.8305 0.0770 (  4450 PWs)   bands (ev):

   -24.5632 -24.2974  -7.3830  -6.7919  -6.5996  -6.3511  -5.7845  -5.3993
    10.1804  11.1557  11.4202  12.5687

          k = 0.4795 0.8305 0.2309 (  4439 PWs)   bands (ev):

   -24.5215 -24.3265  -7.6869  -7.2294  -6.7379  -5.7493  -5.6459  -5.2857
    10.4406  11.4071  11.9135  12.4412

          k = 0.4795 0.8305 0.3849 (  4442 PWs)   bands (ev):

   -24.4535 -24.3820  -7.8451  -7.6885  -6.4229  -6.0172  -5.2826  -5.1061
    10.8439  11.2733  12.5643  12.6539

          k = 0.4795-0.2768 0.0770 (  4457 PWs)   bands (ev):

   -24.6799 -24.2240  -7.4190  -6.7478  -6.4855  -6.4445  -5.6066  -5.2602
     9.6501  10.8643  11.5770  12.9063

          k = 0.4795-0.2768 0.2309 (  4465 PWs)   bands (ev):

   -24.6148 -24.2804  -7.7812  -7.1478  -6.3330  -6.0442  -5.4372  -5.2517
     9.9289  11.1404  11.9278  12.6465

          k = 0.4795-0.2768 0.3849 (  4445 PWs)   bands (ev):

   -24.5045 -24.3819  -7.8781  -7.6494  -6.0610  -5.7336  -5.5041  -5.2034
    10.3949  10.9250  12.5173  12.7188

!    total energy              =    -150.87870088 Ry
     Harris-Foulkes estimate   =    -150.87870087 Ry
     estimated scf accuracy    <          4.0E-09 Ry

     The total energy is the sum of the following terms:

     one-electron contribution =     -15.74516698 Ry
     hartree contribution      =      20.93285970 Ry
     xc contribution           =     -24.67041752 Ry
     ewald contribution        =    -131.39597608 Ry

     convergence has been achieved in   6 iterations

     Forces acting on atoms (Ry/au):

     atom    1 type  2   force =    -0.00000000   -0.00000000   -0.00000000
     atom    2 type  2   force =     0.00000000    0.00000000    0.00000000
     atom    3 type  1   force =    -0.00000000    0.00000000    0.00000000
     atom    4 type  1   force =     0.00000000   -0.00000000   -0.00000000
     atom    5 type  1   force =     0.00000000    0.00000000    0.00000000
     atom    6 type  1   force =     0.00000000    0.00000000    0.00000000

     Total force =     0.000000     Total SCF correction =     0.000000


     entering subroutine stress ...

          total   stress  (Ry/bohr**3)                   (kbar)     P= 1402.62
   0.00954620   0.00000000   0.00000000       1404.29      0.00      0.00
  -0.00000000   0.00954620   0.00000000         -0.00   1404.29      0.00
  -0.00000000   0.00000000   0.00951209         -0.00      0.00   1399.28


     number of scf cycles    =   4
     number of bfgs steps    =   3

     enthalpy old            =    -148.6930044672 Ry
     enthalpy new            =    -148.6946799089 Ry

     CASE: enthalpy_new < enthalpy_old

     new trust radius        =       0.0012854943 bohr
     new conv_thr            =       0.0000000100 Ry

     new unit-cell volume =    229.59145 a.u.^3 (    34.02194 Ang^3 )

CELL_PARAMETERS (alat=  6.86950000)
   0.869310302  -0.000000000  -0.000000000
  -0.434655151   0.752844805   0.000000000
   0.000000000  -0.000000000   1.082181325

ATOMIC_POSITIONS (crystal)
Ca       0.333333333   0.666666667   0.250000000
Ca       0.666666667   0.333333333   0.750000000
H        0.333333333   0.666666667   0.750000000
H        0.666666667   0.333333333   0.250000000
H       -0.000000000  -0.000000000   0.000000000
H        0.000000000   0.000000000   0.500000000



     Writing output data file CaH2_ambient.save
     NEW-OLD atomic charge density approx. for the potential
     NEW k-points:
        k(    1) = (   0.0958614   0.1660369   0.0770050), wk =   0.0370370
        k(    2) = (   0.0958614   0.1660369   0.2310149), wk =   0.0370370
        k(    3) = (   0.0958614   0.1660369   0.3850248), wk =   0.0370370
        k(    4) = (   0.0958614   0.3874194   0.0770050), wk =   0.0740741
        k(    5) = (   0.0958614   0.3874194   0.2310149), wk =   0.0740741
        k(    6) = (   0.0958614   0.3874194   0.3850248), wk =   0.0740741
        k(    7) = (   0.0958614   0.6088019   0.0770050), wk =   0.0740741
        k(    8) = (   0.0958614   0.6088019   0.2310149), wk =   0.0740741
        k(    9) = (   0.0958614   0.6088019   0.3850248), wk =   0.0740741
        k(   10) = (   0.0958614  -0.4981106   0.0770050), wk =   0.0740741
        k(   11) = (   0.0958614  -0.4981106   0.2310149), wk =   0.0740741
        k(   12) = (   0.0958614  -0.4981106   0.3850248), wk =   0.0740741
        k(   13) = (   0.0958614  -0.2767281   0.0770050), wk =   0.0740741
        k(   14) = (   0.0958614  -0.2767281   0.2310149), wk =   0.0740741
        k(   15) = (   0.0958614  -0.2767281   0.3850248), wk =   0.0740741
        k(   16) = (   0.0958614  -0.0553456   0.0770050), wk =   0.0370370
        k(   17) = (   0.0958614  -0.0553456   0.2310149), wk =   0.0370370
        k(   18) = (   0.0958614  -0.0553456   0.3850248), wk =   0.0370370
        k(   19) = (   0.2875843   0.4981106   0.0770050), wk =   0.0370370
        k(   20) = (   0.2875843   0.4981106   0.2310149), wk =   0.0370370
        k(   21) = (   0.2875843   0.4981106   0.3850248), wk =   0.0370370
        k(   22) = (   0.2875843   0.7194931   0.0770050), wk =   0.0740741
        k(   23) = (   0.2875843   0.7194931   0.2310149), wk =   0.0740741
        k(   24) = (   0.2875843   0.7194931   0.3850248), wk =   0.0740741
        k(   25) = (   0.2875843  -0.3874194   0.0770050), wk =   0.0740741
        k(   26) = (   0.2875843  -0.3874194   0.2310149), wk =   0.0740741
        k(   27) = (   0.2875843  -0.3874194   0.3850248), wk =   0.0740741
        k(   28) = (   0.2875843  -0.1660369   0.0770050), wk =   0.0370370
        k(   29) = (   0.2875843  -0.1660369   0.2310149), wk =   0.0370370
        k(   30) = (   0.2875843  -0.1660369   0.3850248), wk =   0.0370370
        k(   31) = (   0.4793072   0.8301844   0.0770050), wk =   0.0370370
        k(   32) = (   0.4793072   0.8301844   0.2310149), wk =   0.0370370
        k(   33) = (   0.4793072   0.8301844   0.3850248), wk =   0.0370370
        k(   34) = (   0.4793072  -0.2767281   0.0770050), wk =   0.0370370
        k(   35) = (   0.4793072  -0.2767281   0.2310149), wk =   0.0370370
        k(   36) = (   0.4793072  -0.2767281   0.3850248), wk =   0.0370370
     extrapolated charge   24.00918, renormalised to   24.00000

     total cpu time spent up to now is      777.4 secs

     per-process dynamical memory:    23.0 Mb

     Self-consistent Calculation

     iteration #  1     ecut=    80.00 Ry     beta=0.30
     Davidson diagonalization with overlap
     ethr =  1.00E-06,  avg # of iterations =  2.0

     Threshold (ethr) on eigenvalues was too large:
     Diagonalizing with lowered threshold

     Davidson diagonalization with overlap
     ethr =  1.32E-08,  avg # of iterations =  2.2

     total cpu time spent up to now is      797.6 secs

     total energy              =    -150.87970436 Ry
     Harris-Foulkes estimate   =    -150.87595494 Ry
     estimated scf accuracy    <       0.00000372 Ry

     iteration #  2     ecut=    80.00 Ry     beta=0.30
     Davidson diagonalization with overlap
     ethr =  1.55E-08,  avg # of iterations =  2.0

     total cpu time spent up to now is      809.8 secs

     total energy              =    -150.87970667 Ry
     Harris-Foulkes estimate   =    -150.87970670 Ry
     estimated scf accuracy    <       0.00000017 Ry

     iteration #  3     ecut=    80.00 Ry     beta=0.30
     Davidson diagonalization with overlap
     ethr =  7.10E-10,  avg # of iterations =  1.1

     total cpu time spent up to now is      818.4 secs

     total energy              =    -150.87970662 Ry
     Harris-Foulkes estimate   =    -150.87970667 Ry
     estimated scf accuracy    <       0.00000009 Ry

     iteration #  4     ecut=    80.00 Ry     beta=0.30
     Davidson diagonalization with overlap
     ethr =  3.93E-10,  avg # of iterations =  2.1

     total cpu time spent up to now is      829.6 secs

     End of self-consistent calculation

          k = 0.0959 0.1660 0.0770 (  4433 PWs)   bands (ev):

   -25.0956 -24.0771  -7.6639  -6.2527  -6.2026  -5.6263  -5.3028  -5.0489
     7.1195   9.8566  14.2266  14.5238

          k = 0.0959 0.1660 0.2310 (  4435 PWs)   bands (ev):

   -24.9663 -24.2212  -7.5015  -6.1563  -6.0436  -5.9753  -5.4239  -5.1433
     7.7532  10.0783  13.9830  14.4881

          k = 0.0959 0.1660 0.3850 (  4455 PWs)   bands (ev):

   -24.7375 -24.4649  -7.1514  -6.6392  -5.8617  -5.7170  -5.6305  -5.3848
     8.7732   9.7584  14.0495  14.5385

          k = 0.0959 0.3874 0.0770 (  4441 PWs)   bands (ev):

   -24.8697 -24.1467  -7.3549  -6.7782  -6.4531  -6.1194  -5.3429  -5.2982
     8.7496  10.6643  12.1300  13.4341

          k = 0.0959 0.3874 0.2310 (  4446 PWs)   bands (ev):

   -24.7732 -24.2434  -7.6017  -6.8641  -6.2787  -6.0508  -5.4713  -5.1436
     9.1684  11.0543  12.4707  12.7973

          k = 0.0959 0.3874 0.3850 (  4452 PWs)   bands (ev):

   -24.6055 -24.4114  -7.6006  -7.3167  -6.0564  -5.7510  -5.5437  -5.2062
     9.9126  10.7908  12.6800  12.9081

          k = 0.0959 0.6088 0.0770 (  4457 PWs)   bands (ev):

   -24.6319 -24.2681  -7.4432  -6.7310  -6.5300  -6.4712  -5.7026  -5.3097
     9.8767  10.9652  11.4756  12.7526

          k = 0.0959 0.6088 0.2310 (  4454 PWs)   bands (ev):

   -24.5779 -24.3111  -7.7892  -7.2096  -6.4947  -5.9312  -5.5189  -5.2719
    10.1524  11.1603  11.9053  12.5883

          k = 0.0959 0.6088 0.3850 (  4444 PWs)   bands (ev):

   -24.4880 -24.3901  -7.9083  -7.7032  -6.1980  -5.8398  -5.4246  -5.1721
    10.5656  10.9944  12.5369  12.7047

          k = 0.0959-0.4981 0.0770 (  4446 PWs)   bands (ev):

   -24.7344 -24.2084  -7.3415  -6.8587  -6.4922  -6.3453  -5.5429  -5.3055
     9.5140  10.8771  11.6174  12.9863

          k = 0.0959-0.4981 0.2310 (  4453 PWs)   bands (ev):

   -24.6608 -24.2751  -7.7058  -7.1017  -6.4151  -5.9905  -5.4989  -5.2130
     9.8172  11.2866  11.9483  12.5757

          k = 0.0959-0.4981 0.3850 (  4446 PWs)   bands (ev):

   -24.5353 -24.3939  -7.7958  -7.5695  -6.1465  -5.8073  -5.4692  -5.1777
    10.3667  11.0440  12.4654  12.6537

          k = 0.0959-0.2767 0.0770 (  4445 PWs)   bands (ev):

   -24.9978 -24.1027  -7.5167  -6.4886  -6.3513  -5.8723  -5.3015  -5.1632
     7.8654  10.2666  13.0583  14.0014

          k = 0.0959-0.2767 0.2310 (  4435 PWs)   bands (ev):

   -24.8820 -24.2267  -7.5318  -6.5159  -6.1248  -6.0681  -5.4446  -5.1105
     8.4027  10.5589  13.3192  13.3919

          k = 0.0959-0.2767 0.3850 (  4447 PWs)   bands (ev):

   -24.6784 -24.4385  -7.3677  -6.9843  -5.9515  -5.6862  -5.6324  -5.2741
     9.3081  10.2614  13.2742  13.5950

          k = 0.0959-0.0553 0.0770 (  4430 PWs)   bands (ev):

   -25.1482 -24.0658  -7.7454  -6.1383  -6.1005  -5.4426  -5.3078  -5.0032
     6.6944   9.6036  14.8343  15.2394

          k = 0.0959-0.0553 0.2310 (  4422 PWs)   bands (ev):

   -25.0122 -24.2206  -7.4937  -6.0055  -5.9965  -5.7748  -5.4160  -5.2295
     7.3850   9.7935  14.4383  15.4669

          k = 0.0959-0.0553 0.3850 (  4450 PWs)   bands (ev):

   -24.7704 -24.4810  -7.0155  -6.3879  -5.8147  -5.7675  -5.6022  -5.4965
     8.4670   9.4660  14.6691  15.3716

          k = 0.2876 0.4981 0.0770 (  4434 PWs)   bands (ev):

   -24.6368 -24.2630  -7.1868  -7.0719  -6.4216  -6.4196  -5.6787  -5.4522
    10.1042  11.2438  11.2936  12.6430

          k = 0.2876 0.4981 0.2310 (  4442 PWs)   bands (ev):

   -24.5817 -24.3075  -7.5536  -7.2856  -6.7170  -5.7839  -5.6726  -5.2501
    10.3638  11.7696  11.8110  12.1876

          k = 0.2876 0.4981 0.3850 (  4447 PWs)   bands (ev):

   -24.4895 -24.3890  -7.7505  -7.6248  -6.4720  -6.0700  -5.2840  -5.0943
    10.8522  11.5084  12.4253  12.4452

          k = 0.2876 0.7195 0.0770 (  4440 PWs)   bands (ev):

   -24.5297 -24.3385  -7.3042  -6.9152  -6.6258  -6.2616  -5.8627  -5.4962
    10.3775  11.2883  11.3827  12.4397

          k = 0.2876 0.7195 0.2310 (  4450 PWs)   bands (ev):

   -24.4975 -24.3572  -7.5308  -7.3021  -6.9336  -5.7579  -5.6285  -5.3394
    10.6168  11.7455  11.8976  12.2191

          k = 0.2876 0.7195 0.3850 (  4441 PWs)   bands (ev):

   -24.4463 -24.3948  -7.7658  -7.6804  -6.6126  -6.1694  -5.2002  -5.0915
    11.0445  11.5614  12.5504  12.5762

          k = 0.2876-0.3874 0.0770 (  4442 PWs)   bands (ev):

   -24.7590 -24.1951  -7.2303  -6.9654  -6.5224  -6.2350  -5.4939  -5.3749
     9.4655  10.9778  11.6072  13.0081

          k = 0.2876-0.3874 0.2310 (  4438 PWs)   bands (ev):

   -24.6810 -24.2676  -7.6001  -7.1112  -6.4729  -5.9282  -5.5761  -5.1773
     9.8028  11.4571  12.0271  12.4261

          k = 0.2876-0.3874 0.3850 (  4444 PWs)   bands (ev):

   -24.5473 -24.3957  -7.7012  -7.4987  -6.2589  -5.9096  -5.4083  -5.1341
    10.4194  11.2155  12.4249  12.5723

          k = 0.2876-0.1660 0.0770 (  4444 PWs)   bands (ev):

   -24.9531 -24.1167  -7.4578  -6.6394  -6.3134  -6.0215  -5.2750  -5.2258
     8.1775  10.4063  12.6846  13.7971

          k = 0.2876-0.1660 0.2310 (  4445 PWs)   bands (ev):

   -24.8438 -24.2313  -7.5664  -6.6310  -6.1814  -6.0895  -5.4217  -5.1294
     8.6694  10.7311  12.9810  13.1512

          k = 0.2876-0.1660 0.3850 (  4452 PWs)   bands (ev):

   -24.6523 -24.4281  -7.4692  -7.1205  -5.9479  -5.6700  -5.6316  -5.2663
     9.5161  10.4446  13.0262  13.3063

          k = 0.4793 0.8302 0.0770 (  4450 PWs)   bands (ev):

   -24.5728 -24.3071  -7.3903  -6.8011  -6.6070  -6.3596  -5.7932  -5.4077
    10.1711  11.1446  11.4078  12.5691

          k = 0.4793 0.8302 0.2310 (  4439 PWs)   bands (ev):

   -24.5311 -24.3361  -7.6945  -7.2373  -6.7471  -5.7577  -5.6543  -5.2943
    10.4320  11.4004  11.9026  12.4358

          k = 0.4793 0.8302 0.3850 (  4442 PWs)   bands (ev):

   -24.4631 -24.3915  -7.8532  -7.6966  -6.4319  -6.0259  -5.2911  -5.1147
    10.8369  11.2687  12.5550  12.6447

          k = 0.4793-0.2767 0.0770 (  4457 PWs)   bands (ev):

   -24.6894 -24.2336  -7.4261  -6.7556  -6.4959  -6.4517  -5.6156  -5.2694
     9.6413  10.8543  11.5648  12.9065

          k = 0.4793-0.2767 0.2310 (  4465 PWs)   bands (ev):

   -24.6242 -24.2899  -7.7888  -7.1555  -6.3432  -6.0522  -5.4466  -5.2602
     9.9210  11.1340  11.9174  12.6408

          k = 0.4793-0.2767 0.3850 (  4445 PWs)   bands (ev):

   -24.5140 -24.3914  -7.8859  -7.6573  -6.0710  -5.7433  -5.5124  -5.2119
    10.3886  10.9205  12.5084  12.7098

!    total energy              =    -150.87970664 Ry
     Harris-Foulkes estimate   =    -150.87970664 Ry
     estimated scf accuracy    <          1.5E-09 Ry

     The total energy is the sum of the following terms:

     one-electron contribution =     -15.77844067 Ry
     hartree contribution      =      20.94126968 Ry
     xc contribution           =     -24.66912047 Ry
     ewald contribution        =    -131.37341519 Ry

     convergence has been achieved in   4 iterations

     Forces acting on atoms (Ry/au):

     atom    1 type  2   force =     0.00000000    0.00000000   -0.00000000
     atom    2 type  2   force =    -0.00000000   -0.00000000    0.00000000
     atom    3 type  1   force =    -0.00000000   -0.00000000   -0.00000000
     atom    4 type  1   force =     0.00000000    0.00000000   -0.00000000
     atom    5 type  1   force =    -0.00000000    0.00000000   -0.00000000
     atom    6 type  1   force =     0.00000000    0.00000000    0.00000000

     Total force =     0.000000     Total SCF correction =     0.000000


     entering subroutine stress ...

          total   stress  (Ry/bohr**3)                   (kbar)     P= 1400.25
   0.00951807   0.00000000   0.00000000       1400.16      0.00      0.00
   0.00000000   0.00951807   0.00000000          0.00   1400.16      0.00
  -0.00000000   0.00000000   0.00951989         -0.00      0.00   1400.42


     bfgs converged in   5 scf cycles and   4 bfgs steps
     (criteria: energy < 0.10E-03, force < 0.10E-02, cell < 0.50E+00)

     End of BFGS Geometry Optimization

     Final enthalpy =    -148.6946829742 Ry
Begin final coordinates
     new unit-cell volume =    229.59145 a.u.^3 (    34.02194 Ang^3 )

CELL_PARAMETERS (alat=  6.86950000)
   0.869310302  -0.000000000  -0.000000000
  -0.434655151   0.752844805   0.000000000
   0.000000000  -0.000000000   1.082181325

ATOMIC_POSITIONS (crystal)
Ca       0.333333333   0.666666667   0.250000000
Ca       0.666666667   0.333333333   0.750000000
H        0.333333333   0.666666667   0.750000000
H        0.666666667   0.333333333   0.250000000
H       -0.000000000  -0.000000000   0.000000000
H        0.000000000   0.000000000   0.500000000
End final coordinates



     A final scf calculation at the relaxed structure.
     The G-vectors are recalculated for the final unit cell
     Results may differ from those at the preceding step.

     G-vector sticks info
     --------------------
     sticks:   dense  smooth     PW     G-vecs:    dense   smooth      PW
     Sum         769     769    241                22123    22123    3731



     bravais-lattice index     =            4
     lattice parameter (alat)  =       6.8695  a.u.
     unit-cell volume          =     229.5914 (a.u.)^3
     number of atoms/cell      =            6
     number of atomic types    =            2
     number of electrons       =        24.00
     number of Kohn-Sham states=           12
     kinetic-energy cutoff     =      80.0000  Ry
     charge density cutoff     =     320.0000  Ry
     convergence threshold     =      1.0E-08
     mixing beta               =       0.3000
     number of iterations used =           16  local-TF  mixing
     Exchange-correlation      = PBE ( 1 4 3 4 0)
     EXX-fraction              =        0.00

     celldm(1)=   6.869500  celldm(2)=   0.000000  celldm(3)=   1.310400
     celldm(4)=   0.000000  celldm(5)=   0.000000  celldm(6)=   0.000000

     crystal axes: (cart. coord. in units of alat)
               a(1) = (   0.869310  -0.000000  -0.000000 )  
               a(2) = (  -0.434655   0.752845   0.000000 )  
               a(3) = (   0.000000  -0.000000   1.082181 )  

     reciprocal axes: (cart. coord. in units 2 pi/alat)
               b(1) = (  1.150337  0.664148  0.000000 )  
               b(2) = (  0.000000  1.328295  0.000000 )  
               b(3) = (  0.000000 -0.000000  0.924060 )  


     PseudoPot. # 1 for H  read from file:
     /home/ilia/espresso/pseudo/H.pbe-sp-mt.ncpp
     MD5 check sum: 7a641936b52ccecd26bd1ad87cca5aed
     Pseudo is Norm-conserving, Zval =  1.0
     Generated by old ld1 code (numerical format)
     Using radial grid of 1076 points,  0 beta functions with: 

     PseudoPot. # 2 for Ca read from file:
     /home/ilia/espresso/pseudo/Ca.pbe-sp-mt_ion2.ncpp
     MD5 check sum: 4bcd670d05521f7b178fdf0a334578ab
     Pseudo is Norm-conserving, Zval = 10.0
     Generated by old ld1 code (numerical format)
     Using radial grid of 1153 points,  1 beta functions with: 
                l(1) =   1

     atomic species   valence    mass     pseudopotential
        H              1.00     1.00700     H ( 1.00)
        Ca            10.00    40.07800     Ca( 1.00)

     24 Sym. Ops., with inversion, found (12 have fractional translation)



   Cartesian axes

     site n.     atom                  positions (alat units)
         1           Ca  tau(   1) = (   0.0000000   0.5018965   0.2705453  )
         2           Ca  tau(   2) = (   0.4346552   0.2509483   0.8116360  )
         3           H   tau(   3) = (   0.0000000   0.5018965   0.8116360  )
         4           H   tau(   4) = (   0.4346552   0.2509483   0.2705453  )
         5           H   tau(   5) = (  -0.0000000  -0.0000000   0.0000000  )
         6           H   tau(   6) = (   0.0000000   0.0000000   0.5410907  )

     number of k points=    36
                       cart. coord. in units 2pi/alat
        k(    1) = (   0.0958614   0.1660369   0.0770050), wk =   0.0370370
        k(    2) = (   0.0958614   0.1660369   0.2310149), wk =   0.0370370
        k(    3) = (   0.0958614   0.1660369   0.3850248), wk =   0.0370370
        k(    4) = (   0.0958614   0.3874194   0.0770050), wk =   0.0740741
        k(    5) = (   0.0958614   0.3874194   0.2310149), wk =   0.0740741
        k(    6) = (   0.0958614   0.3874194   0.3850248), wk =   0.0740741
        k(    7) = (   0.0958614   0.6088019   0.0770050), wk =   0.0740741
        k(    8) = (   0.0958614   0.6088019   0.2310149), wk =   0.0740741
        k(    9) = (   0.0958614   0.6088019   0.3850248), wk =   0.0740741
        k(   10) = (   0.0958614  -0.4981106   0.0770050), wk =   0.0740741
        k(   11) = (   0.0958614  -0.4981106   0.2310149), wk =   0.0740741
        k(   12) = (   0.0958614  -0.4981106   0.3850248), wk =   0.0740741
        k(   13) = (   0.0958614  -0.2767281   0.0770050), wk =   0.0740741
        k(   14) = (   0.0958614  -0.2767281   0.2310149), wk =   0.0740741
        k(   15) = (   0.0958614  -0.2767281   0.3850248), wk =   0.0740741
        k(   16) = (   0.0958614  -0.0553456   0.0770050), wk =   0.0370370
        k(   17) = (   0.0958614  -0.0553456   0.2310149), wk =   0.0370370
        k(   18) = (   0.0958614  -0.0553456   0.3850248), wk =   0.0370370
        k(   19) = (   0.2875843   0.4981106   0.0770050), wk =   0.0370370
        k(   20) = (   0.2875843   0.4981106   0.2310149), wk =   0.0370370
        k(   21) = (   0.2875843   0.4981106   0.3850248), wk =   0.0370370
        k(   22) = (   0.2875843   0.7194931   0.0770050), wk =   0.0740741
        k(   23) = (   0.2875843   0.7194931   0.2310149), wk =   0.0740741
        k(   24) = (   0.2875843   0.7194931   0.3850248), wk =   0.0740741
        k(   25) = (   0.2875843  -0.3874194   0.0770050), wk =   0.0740741
        k(   26) = (   0.2875843  -0.3874194   0.2310149), wk =   0.0740741
        k(   27) = (   0.2875843  -0.3874194   0.3850248), wk =   0.0740741
        k(   28) = (   0.2875843  -0.1660369   0.0770050), wk =   0.0370370
        k(   29) = (   0.2875843  -0.1660369   0.2310149), wk =   0.0370370
        k(   30) = (   0.2875843  -0.1660369   0.3850248), wk =   0.0370370
        k(   31) = (   0.4793072   0.8301844   0.0770050), wk =   0.0370370
        k(   32) = (   0.4793072   0.8301844   0.2310149), wk =   0.0370370
        k(   33) = (   0.4793072   0.8301844   0.3850248), wk =   0.0370370
        k(   34) = (   0.4793072  -0.2767281   0.0770050), wk =   0.0370370
        k(   35) = (   0.4793072  -0.2767281   0.2310149), wk =   0.0370370
        k(   36) = (   0.4793072  -0.2767281   0.3850248), wk =   0.0370370

     Dense  grid:    22123 G-vectors     FFT dimensions: (  36,  36,  45)

     Largest allocated arrays     est. size (Mb)     dimensions
        Kohn-Sham Wavefunctions         0.51 Mb     (   2798,   12)
        NL pseudopotentials             0.26 Mb     (   2798,    6)
        Each V/rho on FFT grid          0.89 Mb     (  58320)
        Each G-vector array             0.17 Mb     (  22123)
        G-vector shells                 0.01 Mb     (   1082)
     Largest temporary arrays     est. size (Mb)     dimensions
        Auxiliary wavefunctions         2.05 Mb     (   2798,   48)
        Each subspace H/S matrix        0.04 Mb     (  48,  48)
        Each <psi_i|beta_j> matrix      0.00 Mb     (      6,   12)
        Arrays for rho mixing          14.24 Mb     (  58320,  16)

     Initial potential from superposition of free atoms

     starting charge   19.99996, renormalised to   24.00000
     Starting wfc are   12 randomized atomic wfcs

     Writing output data file CaH2_ambient.save

     total cpu time spent up to now is      878.6 secs

     per-process dynamical memory:    15.6 Mb

     Self-consistent Calculation

     iteration #  1     ecut=    80.00 Ry     beta=0.30
     Davidson diagonalization with overlap
     ethr =  1.00E-06,  avg # of iterations =  5.2

     total cpu time spent up to now is      890.9 secs

     total energy              =    -152.21733987 Ry
     Harris-Foulkes estimate   =    -153.28174094 Ry
     estimated scf accuracy    <       4.92834022 Ry

     iteration #  2     ecut=    80.00 Ry     beta=0.30
     Davidson diagonalization with overlap
     ethr =  1.00E-02,  avg # of iterations =  1.0

     total cpu time spent up to now is      895.8 secs

     total energy              =    -150.30372166 Ry
     Harris-Foulkes estimate   =    -152.27567662 Ry
     estimated scf accuracy    <       2.85476773 Ry

     iteration #  3     ecut=    80.00 Ry     beta=0.30
     Davidson diagonalization with overlap
     ethr =  1.00E-02,  avg # of iterations =  2.0

     total cpu time spent up to now is      902.6 secs

     total energy              =    -150.86409107 Ry
     Harris-Foulkes estimate   =    -150.86147118 Ry
     estimated scf accuracy    <       0.05286667 Ry

     iteration #  4     ecut=    80.00 Ry     beta=0.30
     Davidson diagonalization with overlap
     ethr =  2.20E-04,  avg # of iterations =  1.1

     total cpu time spent up to now is      906.8 secs

     total energy              =    -150.87028149 Ry
     Harris-Foulkes estimate   =    -150.86489288 Ry
     estimated scf accuracy    <       0.03478358 Ry

     iteration #  5     ecut=    80.00 Ry     beta=0.30
     Davidson diagonalization with overlap
     ethr =  1.45E-04,  avg # of iterations =  2.0

     total cpu time spent up to now is      911.6 secs

     total energy              =    -150.87244613 Ry
     Harris-Foulkes estimate   =    -150.87247209 Ry
     estimated scf accuracy    <       0.00055218 Ry

     iteration #  6     ecut=    80.00 Ry     beta=0.30
     Davidson diagonalization with overlap
     ethr =  2.30E-06,  avg # of iterations =  2.0

     total cpu time spent up to now is      916.4 secs

     total energy              =    -150.87251573 Ry
     Harris-Foulkes estimate   =    -150.87248687 Ry
     estimated scf accuracy    <       0.00027113 Ry

     iteration #  7     ecut=    80.00 Ry     beta=0.30
     Davidson diagonalization with overlap
     ethr =  1.13E-06,  avg # of iterations =  2.0

     total cpu time spent up to now is      921.0 secs

     total energy              =    -150.87250419 Ry
     Harris-Foulkes estimate   =    -150.87253073 Ry
     estimated scf accuracy    <       0.00005531 Ry

     iteration #  8     ecut=    80.00 Ry     beta=0.30
     Davidson diagonalization with overlap
     ethr =  2.30E-07,  avg # of iterations =  2.0

     total cpu time spent up to now is      926.9 secs

     total energy              =    -150.87251242 Ry
     Harris-Foulkes estimate   =    -150.87251144 Ry
     estimated scf accuracy    <       0.00000146 Ry

     iteration #  9     ecut=    80.00 Ry     beta=0.30
     Davidson diagonalization with overlap
     ethr =  6.10E-09,  avg # of iterations =  2.8

     total cpu time spent up to now is      933.3 secs

     total energy              =    -150.87251128 Ry
     Harris-Foulkes estimate   =    -150.87251377 Ry
     estimated scf accuracy    <       0.00000410 Ry

     iteration # 10     ecut=    80.00 Ry     beta=0.30
     Davidson diagonalization with overlap
     ethr =  6.10E-09,  avg # of iterations =  2.1

     total cpu time spent up to now is      939.4 secs

     End of self-consistent calculation

          k = 0.0959 0.1660 0.0770 (  2794 PWs)   bands (ev):

   -25.0777 -24.0593  -7.6663  -6.2555  -6.2053  -5.6290  -5.3058  -5.0521
     7.1253   9.8577  14.2279  14.5244

          k = 0.0959 0.1660 0.2310 (  2795 PWs)   bands (ev):

   -24.9478 -24.2040  -7.5038  -6.1589  -6.0464  -5.9779  -5.4269  -5.1464
     7.7583  10.0797  13.9840  14.4892

          k = 0.0959 0.1660 0.3850 (  2782 PWs)   bands (ev):

   -24.7188 -24.4466  -7.1536  -6.6415  -5.8645  -5.7199  -5.6334  -5.3878
     8.7770   9.7610  14.0504  14.5393

          k = 0.0959 0.3874 0.0770 (  2788 PWs)   bands (ev):

   -24.8517 -24.1279  -7.3573  -6.7806  -6.4558  -6.1219  -5.3459  -5.3012
     8.7533  10.6649  12.1312  13.4349

          k = 0.0959 0.3874 0.2310 (  2779 PWs)   bands (ev):

   -24.7548 -24.2241  -7.6040  -6.8663  -6.2814  -6.0536  -5.4743  -5.1467
     9.1717  11.0552  12.4719  12.7984

          k = 0.0959 0.3874 0.3850 (  2771 PWs)   bands (ev):

   -24.5864 -24.3919  -7.6028  -7.3189  -6.0592  -5.7539  -5.5467  -5.2093
     9.9153  10.7926  12.6806  12.9088

          k = 0.0959 0.6088 0.0770 (  2761 PWs)   bands (ev):

   -24.6125 -24.2477  -7.4454  -6.7336  -6.5325  -6.4739  -5.7055  -5.3127
     9.8777  10.9678  11.4760  12.7535

          k = 0.0959 0.6088 0.2310 (  2765 PWs)   bands (ev):

   -24.5584 -24.2914  -7.7914  -7.2119  -6.4973  -5.9340  -5.5218  -5.2749
    10.1535  11.1629  11.9054  12.5887

          k = 0.0959 0.6088 0.3850 (  2763 PWs)   bands (ev):

   -24.4683 -24.3702  -7.9105  -7.7054  -6.2007  -5.8426  -5.4276  -5.1751
    10.5670  10.9963  12.5369  12.7049

          k = 0.0959-0.4981 0.0770 (  2766 PWs)   bands (ev):

   -24.7153 -24.1884  -7.3438  -6.8611  -6.4948  -6.3479  -5.5458  -5.3085
     9.5163  10.8785  11.6183  12.9872

          k = 0.0959-0.4981 0.2310 (  2769 PWs)   bands (ev):

   -24.6417 -24.2554  -7.7080  -7.1040  -6.4177  -5.9933  -5.5018  -5.2161
     9.8193  11.2881  11.9490  12.5764

          k = 0.0959-0.4981 0.3850 (  2768 PWs)   bands (ev):

   -24.5155 -24.3746  -7.7980  -7.5717  -6.1492  -5.8101  -5.4722  -5.1808
    10.3687  11.0457  12.4656  12.6541

          k = 0.0959-0.2767 0.0770 (  2792 PWs)   bands (ev):

   -24.9798 -24.0846  -7.5191  -6.4911  -6.3540  -5.8749  -5.3045  -5.1663
     7.8703  10.2674  13.0596  14.0021

          k = 0.0959-0.2767 0.2310 (  2781 PWs)   bands (ev):

   -24.8635 -24.2079  -7.5341  -6.5183  -6.1275  -6.0708  -5.4475  -5.1136
     8.4070  10.5600  13.3204  13.3930

          k = 0.0959-0.2767 0.3850 (  2768 PWs)   bands (ev):

   -24.6593 -24.4189  -7.3699  -6.9864  -5.9543  -5.6891  -5.6353  -5.2771
     9.3114  10.2637  13.2750  13.5958

          k = 0.0959-0.0553 0.0770 (  2793 PWs)   bands (ev):

   -25.1303 -24.0480  -7.7478  -6.1411  -6.1033  -5.4455  -5.3108  -5.0064
     6.7007   9.6049  14.8348  15.2407

          k = 0.0959-0.0553 0.2310 (  2798 PWs)   bands (ev):

   -24.9940 -24.2035  -7.4960  -6.0083  -5.9993  -5.7774  -5.4190  -5.2325
     7.3905   9.7951  14.4392  15.4680

          k = 0.0959-0.0553 0.3850 (  2787 PWs)   bands (ev):

   -24.7518 -24.4632  -7.0177  -6.3902  -5.8175  -5.7703  -5.6051  -5.4995
     8.4712   9.4687  14.6700  15.3724

          k = 0.2876 0.4981 0.0770 (  2770 PWs)   bands (ev):

   -24.6181 -24.2429  -7.1891  -7.0744  -6.4242  -6.4221  -5.6816  -5.4552
    10.1056  11.2441  11.2953  12.6439

          k = 0.2876 0.4981 0.2310 (  2769 PWs)   bands (ev):

   -24.5629 -24.2873  -7.5559  -7.2878  -6.7195  -5.7868  -5.6754  -5.2531
    10.3650  11.7699  11.8124  12.1886

          k = 0.2876 0.4981 0.3850 (  2771 PWs)   bands (ev):

   -24.4707 -24.3690  -7.7527  -7.6270  -6.4746  -6.0727  -5.2870  -5.0974
    10.8533  11.5094  12.4255  12.4459

          k = 0.2876 0.7195 0.0770 (  2770 PWs)   bands (ev):

   -24.5108 -24.3186  -7.3065  -6.9177  -6.6282  -6.2642  -5.8655  -5.4992
    10.3780  11.2899  11.3832  12.4407

          k = 0.2876 0.7195 0.2310 (  2773 PWs)   bands (ev):

   -24.4787 -24.3374  -7.5331  -7.3044  -6.9361  -5.7608  -5.6314  -5.3424
    10.6173  11.7469  11.8980  12.2197

          k = 0.2876 0.7195 0.3850 (  2767 PWs)   bands (ev):

   -24.4269 -24.3751  -7.7681  -7.6827  -6.6151  -6.1720  -5.2033  -5.0946
    11.0452  11.5622  12.5507  12.5763

          k = 0.2876-0.3874 0.0770 (  2772 PWs)   bands (ev):

   -24.7402 -24.1755  -7.2327  -6.9677  -6.5249  -6.2376  -5.4969  -5.3778
     9.4683  10.9784  11.6086  13.0090

          k = 0.2876-0.3874 0.2310 (  2776 PWs)   bands (ev):

   -24.6623 -24.2482  -7.6024  -7.1134  -6.4755  -5.9310  -5.5791  -5.1804
     9.8052  11.4576  12.0282  12.4272

          k = 0.2876-0.3874 0.3850 (  2777 PWs)   bands (ev):

   -24.5280 -24.3768  -7.7035  -7.5009  -6.2616  -5.9124  -5.4113  -5.1372
    10.4214  11.2169  12.4253  12.5730

          k = 0.2876-0.1660 0.0770 (  2794 PWs)   bands (ev):

   -24.9354 -24.0984  -7.4602  -6.6418  -6.3162  -6.0240  -5.2780  -5.2289
     8.1819  10.4070  12.6858  13.7979

          k = 0.2876-0.1660 0.2310 (  2781 PWs)   bands (ev):

   -24.8253 -24.2125  -7.5686  -6.6332  -6.1842  -6.0922  -5.4247  -5.1325
     8.6734  10.7321  12.9822  13.1522

          k = 0.2876-0.1660 0.3850 (  2763 PWs)   bands (ev):

   -24.6325 -24.4087  -7.4714  -7.1226  -5.9507  -5.6729  -5.6344  -5.2693
     9.5193  10.4468  13.0269  13.3071

          k = 0.4793 0.8302 0.0770 (  2767 PWs)   bands (ev):

   -24.5539 -24.2869  -7.3925  -6.8036  -6.6094  -6.3622  -5.7961  -5.4107
    10.1717  11.1468  11.4082  12.5700

          k = 0.4793 0.8302 0.2310 (  2762 PWs)   bands (ev):

   -24.5115 -24.3161  -7.6967  -7.2396  -6.7496  -5.7605  -5.6571  -5.2973
    10.4327  11.4026  11.9028  12.4363

          k = 0.4793 0.8302 0.3850 (  2764 PWs)   bands (ev):

   -24.4436 -24.3715  -7.8554  -7.6988  -6.4345  -6.0286  -5.2941  -5.1178
    10.8379  11.2702  12.5549  12.6449

          k = 0.4793-0.2767 0.0770 (  2763 PWs)   bands (ev):

   -24.6700 -24.2135  -7.4283  -6.7581  -6.4986  -6.4541  -5.6185  -5.2724
     9.6430  10.8565  11.5653  12.9073

          k = 0.4793-0.2767 0.2310 (  2772 PWs)   bands (ev):

   -24.6050 -24.2706  -7.7910  -7.1577  -6.3459  -6.0549  -5.4496  -5.2633
     9.9227  11.1363  11.9177  12.6413

          k = 0.4793-0.2767 0.3850 (  2771 PWs)   bands (ev):

   -24.4947 -24.3718  -7.8881  -7.6595  -6.0738  -5.7461  -5.5153  -5.2149
    10.3904  10.9225  12.5084  12.7101

!    total energy              =    -150.87251201 Ry
     Harris-Foulkes estimate   =    -150.87251201 Ry
     estimated scf accuracy    <          8.3E-09 Ry

     The total energy is the sum of the following terms:

     one-electron contribution =     -15.76738539 Ry
     hartree contribution      =      20.93777397 Ry
     xc contribution           =     -24.66948541 Ry
     ewald contribution        =    -131.37341519 Ry

     convergence has been achieved in  10 iterations

     Forces acting on atoms (Ry/au):

     atom    1 type  2   force =    -0.00000000    0.00000000    0.00000000
     atom    2 type  2   force =    -0.00000000    0.00000000    0.00000000
     atom    3 type  1   force =    -0.00000000   -0.00000000   -0.00000000
     atom    4 type  1   force =    -0.00000000   -0.00000000   -0.00000000
     atom    5 type  1   force =    -0.00000000    0.00000000   -0.00000000
     atom    6 type  1   force =    -0.00000000   -0.00000000   -0.00000000

     Total force =     0.000000     Total SCF correction =     0.000001


     entering subroutine stress ...

          total   stress  (Ry/bohr**3)                   (kbar)     P= 1372.42
   0.00932838   0.00000000   0.00000000       1372.25      0.00      0.00
  -0.00000000   0.00932838   0.00000000         -0.00   1372.25      0.00
   0.00000000   0.00000000   0.00933181          0.00      0.00   1372.76


     Writing output data file CaH2_ambient.save

     init_run     :     37.65s CPU     37.88s WALL (       2 calls)
     electrons    :    506.89s CPU    513.99s WALL (       6 calls)
     update_pot   :    164.31s CPU    165.48s WALL (       4 calls)
     forces       :     71.37s CPU     71.59s WALL (       6 calls)
     stress       :    152.66s CPU    153.22s WALL (       6 calls)

     Called by init_run:
     wfcinit      :      6.13s CPU      6.17s WALL (       2 calls)
     potinit      :     14.20s CPU     14.26s WALL (       2 calls)

     Called by electrons:
     c_bands      :    419.95s CPU    425.04s WALL (      49 calls)
     sum_band     :     74.25s CPU     75.70s WALL (      49 calls)
     v_of_rho     :      7.24s CPU      7.38s WALL (      54 calls)
     mix_rho      :      5.93s CPU      6.28s WALL (      49 calls)

     Called by c_bands:
     init_us_2    :     10.95s CPU     11.79s WALL (    4032 calls)
     cegterg      :    414.11s CPU    416.80s WALL (    1764 calls)

     Called by *egterg:
     h_psi        :    334.70s CPU    336.61s WALL (    5859 calls)
     g_psi        :      2.52s CPU      2.56s WALL (    4023 calls)
     cdiaghg      :      2.98s CPU      2.98s WALL (    5607 calls)

     Called by h_psi:
     add_vuspsi   :      5.08s CPU      5.13s WALL (    5859 calls)

     General routines
     calbec       :      5.53s CPU      5.58s WALL (    6291 calls)
     fft          :      2.08s CPU      2.10s WALL (     642 calls)
     ffts         :      2.52s CPU      2.54s WALL (     778 calls)
     fftw         :    314.02s CPU    315.29s WALL (  142658 calls)
     davcio       :      1.29s CPU      3.82s WALL (    5796 calls)


     PWSCF        : 15m33.65s CPU    15m42.98s WALL


   This run was terminated on:  16:48:10   3Jun2014            

=------------------------------------------------------------------------------=
   JOB DONE.
=------------------------------------------------------------------------------=
