
     Program PWSCF v.5.0.2 (svn rev. 9392) starts on  3Jun2014 at 15:42:42 

     This program is part of the open-source Quantum ESPRESSO suite
     for quantum simulation of materials; please cite
         "P. Giannozzi et al., J. Phys.:Condens. Matter 21 395502 (2009);
          URL http://www.quantum-espresso.org", 
     in publications or presentations arising from this work. More details at
     http://www.quantum-espresso.org/quote.php

     Serial version

     Current dimensions of program PWSCF are:
     Max number of different atomic species (ntypx) = 10
     Max number of k-points (npk) =  40000
     Max angular momentum in pseudopotentials (lmaxx) =  3
     Waiting for input...
     Reading input from standard input

     G-vector sticks info
     --------------------
     sticks:   dense  smooth     PW     G-vecs:    dense   smooth      PW
     Sum        1039    1039    313                35601    35601    5799



     bravais-lattice index     =            4
     lattice parameter (alat)  =       6.8695  a.u.
     unit-cell volume          =     367.8832 (a.u.)^3
     number of atoms/cell      =            6
     number of atomic types    =            2
     number of electrons       =        24.00
     number of Kohn-Sham states=           12
     kinetic-energy cutoff     =      80.0000  Ry
     charge density cutoff     =     320.0000  Ry
     convergence threshold     =      1.0E-06
     mixing beta               =       0.3000
     number of iterations used =           16  local-TF  mixing
     Exchange-correlation      = PBE ( 1 4 3 4 0)
     EXX-fraction              =        0.00
     nstep                     =           50


     celldm(1)=   6.869500  celldm(2)=   0.000000  celldm(3)=   1.310400
     celldm(4)=   0.000000  celldm(5)=   0.000000  celldm(6)=   0.000000

     crystal axes: (cart. coord. in units of alat)
               a(1) = (   1.000000   0.000000   0.000000 )  
               a(2) = (  -0.500000   0.866025   0.000000 )  
               a(3) = (   0.000000   0.000000   1.310400 )  

     reciprocal axes: (cart. coord. in units 2 pi/alat)
               b(1) = (  1.000000  0.577350 -0.000000 )  
               b(2) = (  0.000000  1.154701  0.000000 )  
               b(3) = (  0.000000 -0.000000  0.763126 )  


     PseudoPot. # 1 for H  read from file:
     /home/ilia/espresso/pseudo/H.pbe-sp-mt.ncpp
     MD5 check sum: 7a641936b52ccecd26bd1ad87cca5aed
     Pseudo is Norm-conserving, Zval =  1.0
     Generated by old ld1 code (numerical format)
     Using radial grid of 1076 points,  0 beta functions with: 

     PseudoPot. # 2 for Ca read from file:
     /home/ilia/espresso/pseudo/Ca.pbe-sp-mt_ion2.ncpp
     MD5 check sum: 4bcd670d05521f7b178fdf0a334578ab
     Pseudo is Norm-conserving, Zval = 10.0
     Generated by old ld1 code (numerical format)
     Using radial grid of 1153 points,  1 beta functions with: 
                l(1) =   1

     atomic species   valence    mass     pseudopotential
        H              1.00     1.00700     H ( 1.00)
        Ca            10.00    40.07800     Ca( 1.00)

     24 Sym. Ops., with inversion, found (12 have fractional translation)



   Cartesian axes

     site n.     atom                  positions (alat units)
         1           Ca  tau(   1) = (   0.0000000   0.5773503   0.3276000  )
         2           Ca  tau(   2) = (   0.5000000   0.2886751   0.9828000  )
         3           H   tau(   3) = (   0.0000000   0.5773503   0.9828000  )
         4           H   tau(   4) = (   0.5000000   0.2886751   0.3276000  )
         5           H   tau(   5) = (   0.0000000   0.0000000   0.0000000  )
         6           H   tau(   6) = (   0.0000000   0.0000000   0.6552000  )

     number of k points=    36
                       cart. coord. in units 2pi/alat
        k(    1) = (   0.0833333   0.1443376   0.0635938), wk =   0.0370370
        k(    2) = (   0.0833333   0.1443376   0.1907814), wk =   0.0370370
        k(    3) = (   0.0833333   0.1443376   0.3179691), wk =   0.0370370
        k(    4) = (   0.0833333   0.3367877   0.0635938), wk =   0.0740741
        k(    5) = (   0.0833333   0.3367877   0.1907814), wk =   0.0740741
        k(    6) = (   0.0833333   0.3367877   0.3179691), wk =   0.0740741
        k(    7) = (   0.0833333   0.5292377   0.0635938), wk =   0.0740741
        k(    8) = (   0.0833333   0.5292377   0.1907814), wk =   0.0740741
        k(    9) = (   0.0833333   0.5292377   0.3179691), wk =   0.0740741
        k(   10) = (   0.0833333  -0.4330127   0.0635938), wk =   0.0740741
        k(   11) = (   0.0833333  -0.4330127   0.1907814), wk =   0.0740741
        k(   12) = (   0.0833333  -0.4330127   0.3179691), wk =   0.0740741
        k(   13) = (   0.0833333  -0.2405626   0.0635938), wk =   0.0740741
        k(   14) = (   0.0833333  -0.2405626   0.1907814), wk =   0.0740741
        k(   15) = (   0.0833333  -0.2405626   0.3179691), wk =   0.0740741
        k(   16) = (   0.0833333  -0.0481125   0.0635938), wk =   0.0370370
        k(   17) = (   0.0833333  -0.0481125   0.1907814), wk =   0.0370370
        k(   18) = (   0.0833333  -0.0481125   0.3179691), wk =   0.0370370
        k(   19) = (   0.2500000   0.4330127   0.0635938), wk =   0.0370370
        k(   20) = (   0.2500000   0.4330127   0.1907814), wk =   0.0370370
        k(   21) = (   0.2500000   0.4330127   0.3179691), wk =   0.0370370
        k(   22) = (   0.2500000   0.6254628   0.0635938), wk =   0.0740741
        k(   23) = (   0.2500000   0.6254628   0.1907814), wk =   0.0740741
        k(   24) = (   0.2500000   0.6254628   0.3179691), wk =   0.0740741
        k(   25) = (   0.2500000  -0.3367877   0.0635938), wk =   0.0740741
        k(   26) = (   0.2500000  -0.3367877   0.1907814), wk =   0.0740741
        k(   27) = (   0.2500000  -0.3367877   0.3179691), wk =   0.0740741
        k(   28) = (   0.2500000  -0.1443376   0.0635938), wk =   0.0370370
        k(   29) = (   0.2500000  -0.1443376   0.1907814), wk =   0.0370370
        k(   30) = (   0.2500000  -0.1443376   0.3179691), wk =   0.0370370
        k(   31) = (   0.4166667   0.7216878   0.0635938), wk =   0.0370370
        k(   32) = (   0.4166667   0.7216878   0.1907814), wk =   0.0370370
        k(   33) = (   0.4166667   0.7216878   0.3179691), wk =   0.0370370
        k(   34) = (   0.4166667  -0.2405626   0.0635938), wk =   0.0370370
        k(   35) = (   0.4166667  -0.2405626   0.1907814), wk =   0.0370370
        k(   36) = (   0.4166667  -0.2405626   0.3179691), wk =   0.0370370

     Dense  grid:    35601 G-vectors     FFT dimensions: (  40,  40,  54)

     Largest allocated arrays     est. size (Mb)     dimensions
        Kohn-Sham Wavefunctions         0.82 Mb     (   4465,   12)
        NL pseudopotentials             0.41 Mb     (   4465,    6)
        Each V/rho on FFT grid          1.32 Mb     (  86400)
        Each G-vector array             0.27 Mb     (  35601)
        G-vector shells                 0.27 Mb     (  35601)
     Largest temporary arrays     est. size (Mb)     dimensions
        Auxiliary wavefunctions         3.27 Mb     (   4465,   48)
        Each subspace H/S matrix        0.04 Mb     (  48,  48)
        Each <psi_i|beta_j> matrix      0.00 Mb     (      6,   12)
        Arrays for rho mixing          21.09 Mb     (  86400,  16)

     Initial potential from superposition of free atoms

     starting charge   19.99996, renormalised to   24.00000
     Starting wfc are   12 randomized atomic wfcs

     total cpu time spent up to now is       33.0 secs

     per-process dynamical memory:    18.0 Mb

     Self-consistent Calculation

     iteration #  1     ecut=    80.00 Ry     beta=0.30
     Davidson diagonalization with overlap
     ethr =  1.00E-02,  avg # of iterations =  2.0

     total cpu time spent up to now is       44.7 secs

     total energy              =    -153.07279251 Ry
     Harris-Foulkes estimate   =    -154.21365382 Ry
     estimated scf accuracy    <       5.60363544 Ry

     iteration #  2     ecut=    80.00 Ry     beta=0.30
     Davidson diagonalization with overlap
     ethr =  1.00E-02,  avg # of iterations =  1.0

     total cpu time spent up to now is       52.9 secs

     total energy              =    -150.83698953 Ry
     Harris-Foulkes estimate   =    -153.13636637 Ry
     estimated scf accuracy    <       3.36085036 Ry

     iteration #  3     ecut=    80.00 Ry     beta=0.30
     Davidson diagonalization with overlap
     ethr =  1.00E-02,  avg # of iterations =  2.0

     total cpu time spent up to now is       64.7 secs

     total energy              =    -151.46406444 Ry
     Harris-Foulkes estimate   =    -151.46887677 Ry
     estimated scf accuracy    <       0.12171909 Ry

     iteration #  4     ecut=    80.00 Ry     beta=0.30
     Davidson diagonalization with overlap
     ethr =  5.07E-04,  avg # of iterations =  1.2

     total cpu time spent up to now is       73.0 secs

     total energy              =    -151.46762627 Ry
     Harris-Foulkes estimate   =    -151.46640676 Ry
     estimated scf accuracy    <       0.07585957 Ry

     iteration #  5     ecut=    80.00 Ry     beta=0.30
     Davidson diagonalization with overlap
     ethr =  3.16E-04,  avg # of iterations =  2.0

     total cpu time spent up to now is       82.3 secs

     total energy              =    -151.47348455 Ry
     Harris-Foulkes estimate   =    -151.47365066 Ry
     estimated scf accuracy    <       0.00214786 Ry

     iteration #  6     ecut=    80.00 Ry     beta=0.30
     Davidson diagonalization with overlap
     ethr =  8.95E-06,  avg # of iterations =  2.1

     total cpu time spent up to now is       91.2 secs

     total energy              =    -151.47376356 Ry
     Harris-Foulkes estimate   =    -151.47362701 Ry
     estimated scf accuracy    <       0.00104735 Ry

     iteration #  7     ecut=    80.00 Ry     beta=0.30
     Davidson diagonalization with overlap
     ethr =  4.36E-06,  avg # of iterations =  2.0

     total cpu time spent up to now is      100.4 secs

     total energy              =    -151.47368567 Ry
     Harris-Foulkes estimate   =    -151.47383291 Ry
     estimated scf accuracy    <       0.00022358 Ry

     iteration #  8     ecut=    80.00 Ry     beta=0.30
     Davidson diagonalization with overlap
     ethr =  9.32E-07,  avg # of iterations =  2.0

     total cpu time spent up to now is      111.8 secs

     total energy              =    -151.47372341 Ry
     Harris-Foulkes estimate   =    -151.47372142 Ry
     estimated scf accuracy    <       0.00000279 Ry

     iteration #  9     ecut=    80.00 Ry     beta=0.30
     Davidson diagonalization with overlap
     ethr =  1.16E-08,  avg # of iterations =  2.8

     total cpu time spent up to now is      124.2 secs

     total energy              =    -151.47372133 Ry
     Harris-Foulkes estimate   =    -151.47372645 Ry
     estimated scf accuracy    <       0.00001100 Ry

     iteration # 10     ecut=    80.00 Ry     beta=0.30
     Davidson diagonalization with overlap
     ethr =  1.16E-08,  avg # of iterations =  2.0

     total cpu time spent up to now is      135.8 secs

     End of self-consistent calculation

          k = 0.0833 0.1443 0.0636 (  4433 PWs)   bands (ev):

   -31.6045 -31.4301 -13.5095 -13.0075 -12.9923 -12.8512 -12.7664 -12.7627
     1.5643   4.8269   7.1756   8.3198

          k = 0.0833 0.1443 0.1908 (  4435 PWs)   bands (ev):

   -31.5814 -31.4538 -13.4435 -12.9928 -12.9630 -12.9500 -12.7964 -12.7655
     1.9481   4.3204   7.4758   8.4049

          k = 0.0833 0.1443 0.3180 (  4455 PWs)   bands (ev):

   -31.5420 -31.4949 -13.3182 -13.1536 -12.9074 -12.8905 -12.8481 -12.8153
     2.6401   3.5004   7.9861   8.3634

          k = 0.0833 0.3368 0.0636 (  4441 PWs)   bands (ev):

   -31.5650 -31.4417 -13.4003 -13.1382 -13.0610 -12.9855 -12.8393 -12.7724
     2.6554   5.2232   6.5935   6.9560

          k = 0.0833 0.3368 0.1908 (  4446 PWs)   bands (ev):

   -31.5484 -31.4583 -13.4281 -13.1786 -13.0200 -12.9899 -12.8135 -12.7780
     2.9870   4.9640   6.7066   6.8791

          k = 0.0833 0.3368 0.3180 (  4452 PWs)   bands (ev):

   -31.5199 -31.4870 -13.4051 -13.3136 -12.9564 -12.8852 -12.8679 -12.7914
     3.5876   4.3279   6.8707   6.9496

          k = 0.0833 0.5292 0.0636 (  4457 PWs)   bands (ev):

   -31.5247 -31.4619 -13.3327 -13.1869 -13.1071 -13.0767 -12.9331 -12.7780
     4.1438   4.8981   5.5777   6.7989

          k = 0.0833 0.5292 0.1908 (  4454 PWs)   bands (ev):

   -31.5162 -31.4696 -13.4411 -13.2842 -13.0737 -12.9747 -12.8396 -12.8066
     4.4001   5.1417   5.6477   6.3446

          k = 0.0833 0.5292 0.3180 (  4444 PWs)   bands (ev):

   -31.5010 -31.4837 -13.4726 -13.4157 -12.9923 -12.9044 -12.8501 -12.7901
     4.8552   5.3526   5.6060   5.9050

          k = 0.0833-0.4330 0.0636 (  4446 PWs)   bands (ev):

   -31.5420 -31.4517 -13.3473 -13.1918 -13.0806 -13.0476 -12.8923 -12.7758
     3.3855   5.3047   5.8606   6.8539

          k = 0.0833-0.4330 0.1908 (  4453 PWs)   bands (ev):

   -31.5300 -31.4636 -13.4326 -13.2490 -13.0540 -12.9852 -12.8262 -12.7959
     3.6822   5.2870   5.9805   6.5531

          k = 0.0833-0.4330 0.3180 (  4446 PWs)   bands (ev):

   -31.5089 -31.4838 -13.4474 -13.3795 -12.9792 -12.8966 -12.8585 -12.7891
     4.2158   4.8549   6.2109   6.4016

          k = 0.0833-0.2406 0.0636 (  4445 PWs)   bands (ev):

   -31.5873 -31.4349 -13.4613 -13.0632 -13.0299 -12.9170 -12.7930 -12.7690
     2.0265   5.0258   7.0726   7.4478

          k = 0.0833-0.2406 0.1908 (  4435 PWs)   bands (ev):

   -31.5668 -31.4549 -13.4334 -13.0853 -12.9837 -12.9791 -12.8037 -12.7651
     2.3880   4.6095   7.1761   7.5724

          k = 0.0833-0.2406 0.3180 (  4447 PWs)   bands (ev):

   -31.5318 -31.4908 -13.3578 -13.2318 -12.9300 -12.8857 -12.8615 -12.8003
     3.0422   3.8556   7.4642   7.6438

          k = 0.0833-0.0481 0.0636 (  4430 PWs)   bands (ev):

   -31.6138 -31.4283 -13.5357 -12.9786 -12.9695 -12.8043 -12.7656 -12.7516
     1.3194   4.7053   7.2332   8.9760

          k = 0.0833-0.0481 0.1908 (  4422 PWs)   bands (ev):

   -31.5890 -31.4532 -13.4509 -12.9476 -12.9423 -12.9196 -12.7931 -12.7766
     1.7153   4.1596   7.6503   9.0287

          k = 0.0833-0.0481 0.3180 (  4450 PWs)   bands (ev):

   -31.5472 -31.4973 -13.2960 -13.1030 -12.8952 -12.8913 -12.8406 -12.8289
     2.4268   3.3101   8.3230   8.8787

          k = 0.2500 0.4330 0.0636 (  4434 PWs)   bands (ev):

   -31.5244 -31.4608 -13.2900 -13.2275 -13.0878 -13.0736 -12.9220 -12.8165
     3.8450   5.3470   5.5953   6.8153

          k = 0.2500 0.4330 0.1908 (  4442 PWs)   bands (ev):

   -31.5160 -31.4691 -13.3961 -13.2888 -13.1247 -12.9403 -12.8647 -12.8086
     4.1216   5.4218   5.7947   6.4454

          k = 0.2500 0.4330 0.3180 (  4447 PWs)   bands (ev):

   -31.5011 -31.4837 -13.4377 -13.3957 -13.0529 -12.9570 -12.8160 -12.7698
     4.6124   5.1692   6.0600   6.2077

          k = 0.2500 0.6255 0.0636 (  4440 PWs)   bands (ev):

   -31.5065 -31.4733 -13.2674 -13.2205 -13.1337 -13.0574 -12.9676 -12.8296
     4.4557   5.0850   5.3689   6.7890

          k = 0.2500 0.6255 0.1908 (  4450 PWs)   bands (ev):

   -31.5021 -31.4777 -13.3783 -13.3092 -13.1709 -12.9077 -12.8837 -12.8309
     4.6942   5.3140   5.5419   6.3924

          k = 0.2500 0.6255 0.3180 (  4441 PWs)   bands (ev):

   -31.4937 -31.4850 -13.4393 -13.4139 -13.0846 -12.9796 -12.7971 -12.7706
     5.1135   5.5112   5.7150   5.9273

          k = 0.2500-0.3368 0.0636 (  4442 PWs)   bands (ev):

   -31.5458 -31.4497 -13.3478 -13.1808 -13.0954 -13.0204 -12.8769 -12.7939
     3.2127   5.3231   6.0724   6.8735

          k = 0.2500-0.3368 0.1908 (  4438 PWs)   bands (ev):

   -31.5328 -31.4620 -13.4163 -13.2412 -13.0671 -12.9709 -12.8397 -12.7883
     3.5190   5.2262   6.2416   6.6144

          k = 0.2500-0.3368 0.3180 (  4444 PWs)   bands (ev):

   -31.5104 -31.4843 -13.4272 -13.3609 -13.0041 -12.9203 -12.8425 -12.7769
     4.0708   4.7353   6.4572   6.5484

          k = 0.2500-0.1443 0.0636 (  4444 PWs)   bands (ev):

   -31.5794 -31.4371 -13.4400 -13.1016 -13.0224 -12.9553 -12.8104 -12.7637
     2.2441   5.1034   7.0159   7.1184

          k = 0.2500-0.1443 0.1908 (  4445 PWs)   bands (ev):

   -31.5605 -31.4561 -13.4325 -13.1194 -12.9958 -12.9882 -12.7989 -12.7733
     2.5950   4.7372   7.0268   7.2631

          k = 0.2500-0.1443 0.3180 (  4452 PWs)   bands (ev):

   -31.5276 -31.4894 -13.3776 -13.2647 -12.9287 -12.8896 -12.8594 -12.8028
     3.2306   4.0198   7.2361   7.3628

          k = 0.4167 0.7217 0.0636 (  4450 PWs)   bands (ev):

   -31.5146 -31.4680 -13.3066 -13.1902 -13.1266 -13.0713 -12.9538 -12.8048
     4.5152   4.7488   5.5149   6.7895

          k = 0.4167 0.7217 0.1908 (  4439 PWs)   bands (ev):

   -31.5076 -31.4736 -13.4152 -13.2947 -13.1307 -12.9331 -12.8690 -12.8153
     4.7323   5.0253   5.6455   6.3483

          k = 0.4167 0.7217 0.3180 (  4442 PWs)   bands (ev):

   -31.4966 -31.4842 -13.4592 -13.4162 -13.0454 -12.9477 -12.8183 -12.7759
     5.1394   5.4029   5.7020   5.7605

          k = 0.4167-0.2406 0.0636 (  4457 PWs)   bands (ev):

   -31.5350 -31.4557 -13.3445 -13.1932 -13.0850 -13.0699 -12.9119 -12.7668
     3.7117   5.1722   5.6499   6.8232

          k = 0.4167-0.2406 0.1908 (  4465 PWs)   bands (ev):

   -31.5242 -31.4666 -13.4457 -13.2675 -13.0302 -13.0099 -12.8161 -12.8083
     3.9914   5.3303   5.6867   6.4354

          k = 0.4167-0.2406 0.3180 (  4445 PWs)   bands (ev):

   -31.5052 -31.4838 -13.4678 -13.4026 -12.9607 -12.8795 -12.8727 -12.8008
     4.4917   5.0801   5.8795   6.1533

!    total energy              =    -151.47372293 Ry
     Harris-Foulkes estimate   =    -151.47372295 Ry
     estimated scf accuracy    <       0.00000006 Ry

     The total energy is the sum of the following terms:

     one-electron contribution =     -43.98543225 Ry
     hartree contribution      =      28.58806407 Ry
     xc contribution           =     -23.69889745 Ry
     ewald contribution        =    -112.37745729 Ry

     convergence has been achieved in  10 iterations

     Forces acting on atoms (Ry/au):

     atom    1 type  2   force =     0.00000000   -0.00000000    0.00000000
     atom    2 type  2   force =     0.00000000    0.00000000    0.00000000
     atom    3 type  1   force =    -0.00000000    0.00000000    0.00000000
     atom    4 type  1   force =     0.00000000   -0.00000000   -0.00000000
     atom    5 type  1   force =    -0.00000000   -0.00000000   -0.00000000
     atom    6 type  1   force =     0.00000000    0.00000000   -0.00000000

     Total force =     0.000000     Total SCF correction =     0.000000


     entering subroutine stress ...

          total   stress  (Ry/bohr**3)                   (kbar)     P=  201.96
   0.00134506  -0.00000000   0.00000000        197.87     -0.00      0.00
  -0.00000000   0.00134506   0.00000000         -0.00    197.87      0.00
   0.00000000   0.00000000   0.00142857          0.00      0.00    210.15


     BFGS Geometry Optimization

     number of scf cycles    =   1
     number of bfgs steps    =   0

     enthalpy new            =    -150.4733952267 Ry

     new trust radius        =       0.1317764228 bohr
     new conv_thr            =       0.0000010000 Ry

     new unit-cell volume =    331.97417 a.u.^3 (    49.19350 Ang^3 )

CELL_PARAMETERS (alat=  6.86950000)
   0.965647941  -0.000000000   0.000000000
  -0.482823970   0.836275648   0.000000000
   0.000000000   0.000000000   1.268120854

ATOMIC_POSITIONS (crystal)
Ca       0.333333333   0.666666667   0.250000000
Ca       0.666666667   0.333333333   0.750000000
H        0.333333333   0.666666667   0.750000000
H        0.666666667   0.333333333   0.250000000
H       -0.000000000  -0.000000000  -0.000000000
H        0.000000000   0.000000000   0.500000000



     Writing output data file CaH2_ambient.save
     NEW-OLD atomic charge density approx. for the potential
     NEW k-points:
        k(    1) = (   0.0862978   0.1494722   0.0657140), wk =   0.0370370
        k(    2) = (   0.0862978   0.1494722   0.1971421), wk =   0.0370370
        k(    3) = (   0.0862978   0.1494722   0.3285702), wk =   0.0370370
        k(    4) = (   0.0862978   0.3487686   0.0657140), wk =   0.0740741
        k(    5) = (   0.0862978   0.3487686   0.1971421), wk =   0.0740741
        k(    6) = (   0.0862978   0.3487686   0.3285702), wk =   0.0740741
        k(    7) = (   0.0862978   0.5480649   0.0657140), wk =   0.0740741
        k(    8) = (   0.0862978   0.5480649   0.1971421), wk =   0.0740741
        k(    9) = (   0.0862978   0.5480649   0.3285702), wk =   0.0740741
        k(   10) = (   0.0862978  -0.4484167   0.0657140), wk =   0.0740741
        k(   11) = (   0.0862978  -0.4484167   0.1971421), wk =   0.0740741
        k(   12) = (   0.0862978  -0.4484167   0.3285702), wk =   0.0740741
        k(   13) = (   0.0862978  -0.2491204   0.0657140), wk =   0.0740741
        k(   14) = (   0.0862978  -0.2491204   0.1971421), wk =   0.0740741
        k(   15) = (   0.0862978  -0.2491204   0.3285702), wk =   0.0740741
        k(   16) = (   0.0862978  -0.0498241   0.0657140), wk =   0.0370370
        k(   17) = (   0.0862978  -0.0498241   0.1971421), wk =   0.0370370
        k(   18) = (   0.0862978  -0.0498241   0.3285702), wk =   0.0370370
        k(   19) = (   0.2588935   0.4484167   0.0657140), wk =   0.0370370
        k(   20) = (   0.2588935   0.4484167   0.1971421), wk =   0.0370370
        k(   21) = (   0.2588935   0.4484167   0.3285702), wk =   0.0370370
        k(   22) = (   0.2588935   0.6477131   0.0657140), wk =   0.0740741
        k(   23) = (   0.2588935   0.6477131   0.1971421), wk =   0.0740741
        k(   24) = (   0.2588935   0.6477131   0.3285702), wk =   0.0740741
        k(   25) = (   0.2588935  -0.3487686   0.0657140), wk =   0.0740741
        k(   26) = (   0.2588935  -0.3487686   0.1971421), wk =   0.0740741
        k(   27) = (   0.2588935  -0.3487686   0.3285702), wk =   0.0740741
        k(   28) = (   0.2588935  -0.1494722   0.0657140), wk =   0.0370370
        k(   29) = (   0.2588935  -0.1494722   0.1971421), wk =   0.0370370
        k(   30) = (   0.2588935  -0.1494722   0.3285702), wk =   0.0370370
        k(   31) = (   0.4314892   0.7473612   0.0657140), wk =   0.0370370
        k(   32) = (   0.4314892   0.7473612   0.1971421), wk =   0.0370370
        k(   33) = (   0.4314892   0.7473612   0.3285702), wk =   0.0370370
        k(   34) = (   0.4314892  -0.2491204   0.0657140), wk =   0.0370370
        k(   35) = (   0.4314892  -0.2491204   0.1971421), wk =   0.0370370
        k(   36) = (   0.4314892  -0.2491204   0.3285702), wk =   0.0370370
     extrapolated charge   21.83664, renormalised to   24.00000

     total cpu time spent up to now is      222.1 secs

     per-process dynamical memory:    23.0 Mb

     Self-consistent Calculation

     iteration #  1     ecut=    80.00 Ry     beta=0.30
     Davidson diagonalization with overlap
     ethr =  1.00E-06,  avg # of iterations =  5.8

     total cpu time spent up to now is      240.4 secs

     total energy              =    -151.27776661 Ry
     Harris-Foulkes estimate   =    -153.39734936 Ry
     estimated scf accuracy    <       0.28374192 Ry

     iteration #  2     ecut=    80.00 Ry     beta=0.30
     Davidson diagonalization with overlap
     ethr =  1.18E-03,  avg # of iterations =  2.0

     total cpu time spent up to now is      252.2 secs

     total energy              =    -151.41240871 Ry
     Harris-Foulkes estimate   =    -151.41812171 Ry
     estimated scf accuracy    <       0.02157612 Ry

     iteration #  3     ecut=    80.00 Ry     beta=0.30
     Davidson diagonalization with overlap
     ethr =  8.99E-05,  avg # of iterations =  1.0

     total cpu time spent up to now is      260.4 secs

     total energy              =    -151.40373410 Ry
     Harris-Foulkes estimate   =    -151.41289162 Ry
     estimated scf accuracy    <       0.01164091 Ry

     iteration #  4     ecut=    80.00 Ry     beta=0.30
     Davidson diagonalization with overlap
     ethr =  4.85E-05,  avg # of iterations =  2.1

     total cpu time spent up to now is      272.3 secs

     total energy              =    -151.40738671 Ry
     Harris-Foulkes estimate   =    -151.40767990 Ry
     estimated scf accuracy    <       0.00117613 Ry

     iteration #  5     ecut=    80.00 Ry     beta=0.30
     Davidson diagonalization with overlap
     ethr =  4.90E-06,  avg # of iterations =  1.0

     total cpu time spent up to now is      280.5 secs

     total energy              =    -151.40725064 Ry
     Harris-Foulkes estimate   =    -151.40742405 Ry
     estimated scf accuracy    <       0.00027105 Ry

     iteration #  6     ecut=    80.00 Ry     beta=0.30
     Davidson diagonalization with overlap
     ethr =  1.13E-06,  avg # of iterations =  2.0

     total cpu time spent up to now is      292.3 secs

     total energy              =    -151.40731566 Ry
     Harris-Foulkes estimate   =    -151.40732325 Ry
     estimated scf accuracy    <       0.00001235 Ry

     iteration #  7     ecut=    80.00 Ry     beta=0.30
     Davidson diagonalization with overlap
     ethr =  5.14E-08,  avg # of iterations =  2.0

     total cpu time spent up to now is      304.0 secs

     End of self-consistent calculation

          k = 0.0863 0.1495 0.0657 (  4433 PWs)   bands (ev):

   -30.2686 -30.0130 -12.2907 -11.6454 -11.6223 -11.4354 -11.3224 -11.2912
     2.4640   5.7701   8.3803   9.4815

          k = 0.0863 0.1495 0.1971 (  4435 PWs)   bands (ev):

   -30.2349 -30.0477 -12.2057 -11.6205 -11.5843 -11.5611 -11.3622 -11.3070
     2.8848   5.3363   8.5982   9.5754

          k = 0.0863 0.1495 0.3286 (  4455 PWs)   bands (ev):

   -30.1765 -30.1078 -12.0429 -11.8274 -11.5088 -11.4843 -11.4307 -11.3797
     3.6311   4.5316   9.0998   9.5203

          k = 0.0863 0.3488 0.0657 (  4441 PWs)   bands (ev):

   -30.2086 -30.0280 -12.1457 -11.8366 -11.7221 -11.6192 -11.3958 -11.3316
     3.6715   6.2498   7.6301   8.0367

          k = 0.0863 0.3488 0.1971 (  4446 PWs)   bands (ev):

   -30.1844 -30.0523 -12.1949 -11.8812 -11.6611 -11.6208 -11.3864 -11.3225
     4.0232   6.0505   7.7595   7.9101

          k = 0.0863 0.3488 0.3286 (  4452 PWs)   bands (ev):

   -30.1425 -30.0942 -12.1719 -12.0552 -11.5781 -11.4810 -11.4530 -11.3437
     4.6557   5.4249   7.9218   8.0036

          k = 0.0863 0.5481 0.0657 (  4457 PWs)   bands (ev):

   -30.1479 -30.0561 -12.0901 -11.8791 -11.7861 -11.7396 -11.5273 -11.3402
     5.2369   6.0219   6.5424   7.7922

          k = 0.0863 0.5481 0.1971 (  4454 PWs)   bands (ev):

   -30.1352 -30.0677 -12.2306 -12.0209 -11.7363 -11.5951 -11.4170 -11.3684
     5.4907   6.2830   6.6671   7.3495

          k = 0.0863 0.5481 0.3286 (  4444 PWs)   bands (ev):

   -30.1132 -30.0883 -12.2726 -12.1967 -11.6288 -11.5107 -11.4242 -11.3413
     5.9400   6.4760   6.6838   6.9700

          k = 0.0863-0.4484 0.0657 (  4446 PWs)   bands (ev):

   -30.1738 -30.0420 -12.0870 -11.9045 -11.7504 -11.7017 -11.4692 -11.3368
     4.4523   6.3946   6.8455   7.8789

          k = 0.0863-0.4484 0.1971 (  4453 PWs)   bands (ev):

   -30.1560 -30.0594 -12.2110 -11.9758 -11.7087 -11.6119 -11.4021 -11.3495
     4.7590   6.4091   7.0087   7.5589

          k = 0.0863-0.4484 0.3286 (  4446 PWs)   bands (ev):

   -30.1251 -30.0893 -12.2348 -12.1470 -11.6103 -11.4993 -11.4369 -11.3400
     5.3087   5.9693   7.2752   7.4437

          k = 0.0863-0.2491 0.0657 (  4445 PWs)   bands (ev):

   -30.2424 -30.0187 -12.2260 -11.7276 -11.6773 -11.5263 -11.3331 -11.3258
     2.9810   6.0085   8.2200   8.5332

          k = 0.0863-0.2491 0.1971 (  4435 PWs)   bands (ev):

   -30.2126 -30.0485 -12.1953 -11.7513 -11.6124 -11.6042 -11.3729 -11.3047
     3.3719   5.6603   8.2482   8.6707

          k = 0.0863-0.2491 0.3286 (  4447 PWs)   bands (ev):

   -30.1610 -30.1010 -12.1017 -11.9395 -11.5407 -11.4768 -11.4497 -11.3569
     4.0708   4.9199   8.5305   8.7412

          k = 0.0863-0.0498 0.0657 (  4430 PWs)   bands (ev):

   -30.2828 -30.0107 -12.3260 -11.6032 -11.5892 -11.3696 -11.3210 -11.2757
     2.1870   5.6247   8.4708  10.2175

          k = 0.0863-0.0498 0.1971 (  4422 PWs)   bands (ev):

   -30.2468 -30.0476 -12.2145 -11.5616 -11.5536 -11.5109 -11.3573 -11.3257
     2.6241   5.1541   8.8082  10.2753

          k = 0.0863-0.0498 0.3286 (  4450 PWs)   bands (ev):

   -30.1849 -30.1119 -12.0099 -11.7535 -11.4917 -11.4859 -11.4198 -11.4010
     3.3954   4.3211   9.4790  10.0961

          k = 0.2589 0.4484 0.0657 (  4434 PWs)   bands (ev):

   -30.1481 -30.0550 -12.0055 -11.9621 -11.7585 -11.7322 -11.5143 -11.3960
     4.9358   6.4415   6.6259   7.8025

          k = 0.2589 0.4484 0.1971 (  4442 PWs)   bands (ev):

   -30.1354 -30.0671 -12.1587 -12.0312 -11.8091 -11.5499 -11.4614 -11.3649
     5.2200   6.5668   6.8508   7.4290

          k = 0.2589 0.4484 0.3286 (  4447 PWs)   bands (ev):

   -30.1134 -30.0883 -12.2191 -12.1667 -11.7174 -11.5878 -11.3777 -11.3133
     5.7240   6.3103   7.1401   7.2495

          k = 0.2589 0.6477 0.0657 (  4440 PWs)   bands (ev):

   -30.1213 -30.0731 -12.0091 -11.9249 -11.8128 -11.7114 -11.5798 -11.4150
     5.5359   6.1925   6.4464   7.7497

          k = 0.2589 0.6477 0.1971 (  4450 PWs)   bands (ev):

   -30.1145 -30.0792 -12.1397 -12.0509 -11.8782 -11.5079 -11.4841 -11.3969
     5.7726   6.4574   6.6597   7.3703

          k = 0.2589 0.6477 0.3286 (  4441 PWs)   bands (ev):

   -30.1025 -30.0897 -12.2221 -12.1891 -11.7641 -11.6212 -11.3513 -11.3146
     6.1945   6.6822   6.8309   6.9821

          k = 0.2589-0.3488 0.0657 (  4442 PWs)   bands (ev):

   -30.1798 -30.0392 -12.0783 -11.8961 -11.7723 -11.6623 -11.4495 -11.3631
     4.2728   6.3859   7.0929   7.9054

          k = 0.2589-0.3488 0.1971 (  4438 PWs)   bands (ev):

   -30.1607 -30.0575 -12.1829 -11.9678 -11.7267 -11.5932 -11.4249 -11.3367
     4.5929   6.3429   7.2850   7.6182

          k = 0.2589-0.3488 0.3286 (  4444 PWs)   bands (ev):

   -30.1278 -30.0900 -12.2039 -12.1204 -11.6464 -11.5339 -11.4151 -11.3233
     5.1672   5.8573   7.5163   7.5845

          k = 0.2589-0.1495 0.0657 (  4444 PWs)   bands (ev):

   -30.2305 -30.0216 -12.1977 -11.7842 -11.6632 -11.5830 -11.3553 -11.3189
     3.2211   6.1013   8.1300   8.1911

          k = 0.2589-0.1495 0.1971 (  4445 PWs)   bands (ev):

   -30.2027 -30.0497 -12.1966 -11.7986 -11.6291 -11.6180 -11.3660 -11.3153
     3.5979   5.8005   8.0863   8.3367

          k = 0.2589-0.1495 0.3286 (  4452 PWs)   bands (ev):

   -30.1544 -30.0984 -12.1314 -11.9864 -11.5390 -11.4814 -11.4468 -11.3598
     4.2734   5.0958   8.2928   8.4421

          k = 0.4315 0.7474 0.0657 (  4450 PWs)   bands (ev):

   -30.1328 -30.0653 -12.0591 -11.8812 -11.8093 -11.7321 -11.5585 -11.3789
     5.5902   5.8851   6.5317   7.7632

          k = 0.4315 0.7474 0.1971 (  4439 PWs)   bands (ev):

   -30.1229 -30.0736 -12.1946 -12.0319 -11.8185 -11.5379 -11.4634 -11.3779
     5.8002   6.1881   6.7136   7.3392

          k = 0.4315 0.7474 0.3286 (  4442 PWs)   bands (ev):

   -30.1068 -30.0888 -12.2524 -12.1948 -11.7060 -11.5738 -11.3803 -11.3219
     6.2010   6.6137   6.7485   6.8327

          k = 0.4315-0.2491 0.0657 (  4457 PWs)   bands (ev):

   -30.1628 -30.0477 -12.0963 -11.8959 -11.7586 -11.7292 -11.4963 -11.3240
     4.7915   6.3180   6.5750   7.8350

          k = 0.4315-0.2491 0.1971 (  4465 PWs)   bands (ev):

   -30.1470 -30.0630 -12.2342 -11.9999 -11.6765 -11.6434 -11.3799 -11.3740
     5.0754   6.5074   6.6535   7.4434

          k = 0.4315-0.2491 0.3286 (  4445 PWs)   bands (ev):

   -30.1197 -30.0888 -12.2654 -12.1795 -11.5840 -11.4754 -11.4555 -11.3556
     5.5810   6.1858   6.9557   7.2057

!    total energy              =    -151.40731819 Ry
     Harris-Foulkes estimate   =    -151.40731813 Ry
     estimated scf accuracy    <       0.00000028 Ry

     The total energy is the sum of the following terms:

     one-electron contribution =     -38.12477154 Ry
     hartree contribution      =      26.89646367 Ry
     xc contribution           =     -23.88390672 Ry
     ewald contribution        =    -116.29510360 Ry

     convergence has been achieved in   7 iterations

     Forces acting on atoms (Ry/au):

     atom    1 type  2   force =    -0.00000000   -0.00000000   -0.00000000
     atom    2 type  2   force =     0.00000000    0.00000000    0.00000000
     atom    3 type  1   force =    -0.00000000   -0.00000000   -0.00000000
     atom    4 type  1   force =     0.00000000    0.00000000    0.00000000
     atom    5 type  1   force =     0.00000000    0.00000000    0.00000000
     atom    6 type  1   force =     0.00000000    0.00000000   -0.00000000

     Total force =     0.000000     Total SCF correction =     0.000000


     entering subroutine stress ...

          total   stress  (Ry/bohr**3)                   (kbar)     P=  352.23
   0.00245001   0.00000000   0.00000000        360.41      0.00      0.00
   0.00000000   0.00245001   0.00000000          0.00    360.41      0.00
   0.00000000   0.00000000   0.00228327          0.00      0.00    335.88


     number of scf cycles    =   2
     number of bfgs steps    =   1

     enthalpy old            =    -150.4733952267 Ry
     enthalpy new            =    -150.5046322183 Ry

     CASE: enthalpy_new < enthalpy_old

     new trust radius        =       0.0500129323 bohr
     new conv_thr            =       0.0000000100 Ry

     new unit-cell volume =    321.80906 a.u.^3 (    47.68718 Ang^3 )

CELL_PARAMETERS (alat=  6.86950000)
   0.957341111  -0.000000000   0.000000000
  -0.478670556   0.829081722   0.000000000
   0.000000000   0.000000000   1.250716383

ATOMIC_POSITIONS (crystal)
Ca       0.333333333   0.666666667   0.250000000
Ca       0.666666667   0.333333333   0.750000000
H        0.333333333   0.666666667   0.750000000
H        0.666666667   0.333333333   0.250000000
H       -0.000000000  -0.000000000   0.000000000
H        0.000000000   0.000000000   0.500000000



     Writing output data file CaH2_ambient.save
     NEW-OLD atomic charge density approx. for the potential
     NEW k-points:
        k(    1) = (   0.0870466   0.1507692   0.0666285), wk =   0.0370370
        k(    2) = (   0.0870466   0.1507692   0.1998854), wk =   0.0370370
        k(    3) = (   0.0870466   0.1507692   0.3331424), wk =   0.0370370
        k(    4) = (   0.0870466   0.3517948   0.0666285), wk =   0.0740741
        k(    5) = (   0.0870466   0.3517948   0.1998854), wk =   0.0740741
        k(    6) = (   0.0870466   0.3517948   0.3331424), wk =   0.0740741
        k(    7) = (   0.0870466   0.5528205   0.0666285), wk =   0.0740741
        k(    8) = (   0.0870466   0.5528205   0.1998854), wk =   0.0740741
        k(    9) = (   0.0870466   0.5528205   0.3331424), wk =   0.0740741
        k(   10) = (   0.0870466  -0.4523076   0.0666285), wk =   0.0740741
        k(   11) = (   0.0870466  -0.4523076   0.1998854), wk =   0.0740741
        k(   12) = (   0.0870466  -0.4523076   0.3331424), wk =   0.0740741
        k(   13) = (   0.0870466  -0.2512820   0.0666285), wk =   0.0740741
        k(   14) = (   0.0870466  -0.2512820   0.1998854), wk =   0.0740741
        k(   15) = (   0.0870466  -0.2512820   0.3331424), wk =   0.0740741
        k(   16) = (   0.0870466  -0.0502564   0.0666285), wk =   0.0370370
        k(   17) = (   0.0870466  -0.0502564   0.1998854), wk =   0.0370370
        k(   18) = (   0.0870466  -0.0502564   0.3331424), wk =   0.0370370
        k(   19) = (   0.2611399   0.4523076   0.0666285), wk =   0.0370370
        k(   20) = (   0.2611399   0.4523076   0.1998854), wk =   0.0370370
        k(   21) = (   0.2611399   0.4523076   0.3331424), wk =   0.0370370
        k(   22) = (   0.2611399   0.6533333   0.0666285), wk =   0.0740741
        k(   23) = (   0.2611399   0.6533333   0.1998854), wk =   0.0740741
        k(   24) = (   0.2611399   0.6533333   0.3331424), wk =   0.0740741
        k(   25) = (   0.2611399  -0.3517948   0.0666285), wk =   0.0740741
        k(   26) = (   0.2611399  -0.3517948   0.1998854), wk =   0.0740741
        k(   27) = (   0.2611399  -0.3517948   0.3331424), wk =   0.0740741
        k(   28) = (   0.2611399  -0.1507692   0.0666285), wk =   0.0370370
        k(   29) = (   0.2611399  -0.1507692   0.1998854), wk =   0.0370370
        k(   30) = (   0.2611399  -0.1507692   0.3331424), wk =   0.0370370
        k(   31) = (   0.4352332   0.7538461   0.0666285), wk =   0.0370370
        k(   32) = (   0.4352332   0.7538461   0.1998854), wk =   0.0370370
        k(   33) = (   0.4352332   0.7538461   0.3331424), wk =   0.0370370
        k(   34) = (   0.4352332  -0.2512820   0.0666285), wk =   0.0370370
        k(   35) = (   0.4352332  -0.2512820   0.1998854), wk =   0.0370370
        k(   36) = (   0.4352332  -0.2512820   0.3331424), wk =   0.0370370
     extrapolated charge   23.36825, renormalised to   24.00000

     total cpu time spent up to now is      389.2 secs

     per-process dynamical memory:    23.0 Mb

     Self-consistent Calculation

     iteration #  1     ecut=    80.00 Ry     beta=0.30
     Davidson diagonalization with overlap
     ethr =  1.00E-06,  avg # of iterations =  4.0

     total cpu time spent up to now is      406.1 secs

     total energy              =    -151.36905694 Ry
     Harris-Foulkes estimate   =    -151.94689125 Ry
     estimated scf accuracy    <       0.02129707 Ry

     iteration #  2     ecut=    80.00 Ry     beta=0.30
     Davidson diagonalization with overlap
     ethr =  8.87E-05,  avg # of iterations =  2.0

     total cpu time spent up to now is      417.9 secs

     total energy              =    -151.38160050 Ry
     Harris-Foulkes estimate   =    -151.38183904 Ry
     estimated scf accuracy    <       0.00103019 Ry

     iteration #  3     ecut=    80.00 Ry     beta=0.30
     Davidson diagonalization with overlap
     ethr =  4.29E-06,  avg # of iterations =  1.1

     total cpu time spent up to now is      426.2 secs

     total energy              =    -151.38119596 Ry
     Harris-Foulkes estimate   =    -151.38162320 Ry
     estimated scf accuracy    <       0.00060236 Ry

     iteration #  4     ecut=    80.00 Ry     beta=0.30
     Davidson diagonalization with overlap
     ethr =  2.51E-06,  avg # of iterations =  2.1

     total cpu time spent up to now is      438.0 secs

     total energy              =    -151.38135038 Ry
     Harris-Foulkes estimate   =    -151.38135162 Ry
     estimated scf accuracy    <       0.00002276 Ry

     iteration #  5     ecut=    80.00 Ry     beta=0.30
     Davidson diagonalization with overlap
     ethr =  9.48E-08,  avg # of iterations =  1.1

     total cpu time spent up to now is      446.3 secs

     total energy              =    -151.38134995 Ry
     Harris-Foulkes estimate   =    -151.38135091 Ry
     estimated scf accuracy    <       0.00000697 Ry

     iteration #  6     ecut=    80.00 Ry     beta=0.30
     Davidson diagonalization with overlap
     ethr =  2.90E-08,  avg # of iterations =  2.0

     total cpu time spent up to now is      455.4 secs

     total energy              =    -151.38135055 Ry
     Harris-Foulkes estimate   =    -151.38135056 Ry
     estimated scf accuracy    <       0.00000007 Ry

     iteration #  7     ecut=    80.00 Ry     beta=0.30
     Davidson diagonalization with overlap
     ethr =  3.08E-10,  avg # of iterations =  2.4

     total cpu time spent up to now is      467.4 secs

     total energy              =    -151.38135058 Ry
     Harris-Foulkes estimate   =    -151.38135057 Ry
     estimated scf accuracy    <       0.00000001 Ry

     iteration #  8     ecut=    80.00 Ry     beta=0.30
     Davidson diagonalization with overlap
     ethr =  6.19E-11,  avg # of iterations =  1.2

     total cpu time spent up to now is      475.6 secs

     End of self-consistent calculation

          k = 0.0870 0.1508 0.0666 (  4433 PWs)   bands (ev):

   -29.8601 -29.5699 -11.9216 -11.2296 -11.2050 -10.9963 -10.8727 -10.8288
     2.7655   6.0721   8.8174   9.8292

          k = 0.0870 0.1508 0.1999 (  4435 PWs)   bands (ev):

   -29.8218 -29.6094 -11.8309 -11.1994 -11.1610 -11.1350 -10.9169 -10.8496
     3.2021   5.6780   8.9856   9.9344

          k = 0.0870 0.1508 0.3331 (  4455 PWs)   bands (ev):

   -29.7555 -29.6776 -11.6559 -11.4224 -11.0791 -11.0490 -10.9928 -10.9319
     3.9714   4.8871   9.4669   9.8888

          k = 0.0870 0.3518 0.0666 (  4441 PWs)   bands (ev):

   -29.7923 -29.5874 -11.7651 -11.4391 -11.3132 -11.1978 -10.9436 -10.8816
     4.0053   6.5714   7.9484   8.4264

          k = 0.0870 0.3518 0.1999 (  4446 PWs)   bands (ev):

   -29.7648 -29.6149 -11.8241 -11.4857 -11.2451 -11.1973 -10.9424 -10.8643
     4.3666   6.4089   8.0965   8.2538

          k = 0.0870 0.3518 0.3331 (  4452 PWs)   bands (ev):

   -29.7172 -29.6624 -11.8019 -11.6756 -11.1549 -11.0458 -11.0111 -10.8881
     5.0141   5.7958   8.2631   8.3451

          k = 0.0870 0.5528 0.0666 (  4457 PWs)   bands (ev):

   -29.7236 -29.6195 -11.7144 -11.4772 -11.3783 -11.3323 -11.0882 -10.8905
     5.5841   6.3731   6.8469   8.1507

          k = 0.0870 0.5528 0.1999 (  4454 PWs)   bands (ev):

   -29.7091 -29.6326 -11.8676 -11.6373 -11.3280 -11.1658 -10.9727 -10.9163
     5.8388   6.6396   7.0027   7.7023

          k = 0.0870 0.5528 0.3331 (  4444 PWs)   bands (ev):

   -29.6842 -29.6560 -11.9141 -11.8309 -11.2103 -11.0794 -10.9760 -10.8841
     6.2876   6.8139   7.0710   7.3311

          k = 0.0870-0.4523 0.0666 (  4446 PWs)   bands (ev):

   -29.7529 -29.6035 -11.7056 -11.5097 -11.3422 -11.2888 -11.0243 -10.8870
     4.7978   6.7304   7.1556   8.2486

          k = 0.0870-0.4523 0.1999 (  4453 PWs)   bands (ev):

   -29.7326 -29.6231 -11.8445 -11.5886 -11.2976 -11.1853 -10.9582 -10.8943
     5.1103   6.7696   7.3394   7.9039

          k = 0.0870-0.4523 0.3331 (  4446 PWs)   bands (ev):

   -29.6976 -29.6571 -11.8722 -11.7765 -11.1901 -11.0667 -10.9908 -10.8831
     5.6692   6.3393   7.6238   7.7879

          k = 0.0870-0.2513 0.0666 (  4445 PWs)   bands (ev):

   -29.8305 -29.5765 -11.8514 -11.3198 -11.2651 -11.0960 -10.8783 -10.8723
     3.2981   6.3201   8.6349   8.8614

          k = 0.0870-0.2513 0.1999 (  4435 PWs)   bands (ev):

   -29.7967 -29.6105 -11.8216 -11.3433 -11.1894 -11.1837 -10.9281 -10.8456
     3.7021   6.0111   8.6147   9.0102

          k = 0.0870-0.2513 0.3331 (  4447 PWs)   bands (ev):

   -29.7381 -29.6700 -11.7229 -11.5476 -11.1140 -11.0379 -11.0133 -10.9043
     4.4205   5.2838   8.8793   9.0912

          k = 0.0870-0.0503 0.0666 (  4430 PWs)   bands (ev):

   -29.8761 -29.5673 -11.9599 -11.1835 -11.1684 -10.9241 -10.8716 -10.8117
     2.4790   5.9208   8.9209  10.5872

          k = 0.0870-0.0503 0.1999 (  4422 PWs)   bands (ev):

   -29.8354 -29.6093 -11.8395 -11.1370 -11.1290 -11.0749 -10.9117 -10.8723
     2.9337   5.4898   9.2109  10.6570

          k = 0.0870-0.0503 0.3331 (  4450 PWs)   bands (ev):

   -29.7650 -29.6822 -11.6178 -11.3389 -11.0605 -11.0529 -10.9810 -10.9579
     3.7299   4.6712   9.8636  10.4861

          k = 0.2611 0.4523 0.0666 (  4434 PWs)   bands (ev):

   -29.7240 -29.6183 -11.6150 -11.5789 -11.3477 -11.3207 -11.0748 -10.9509
     5.2864   6.7817   6.9468   8.1572

          k = 0.2611 0.4523 0.1999 (  4442 PWs)   bands (ev):

   -29.7094 -29.6319 -11.7867 -11.6506 -11.4089 -11.1151 -11.0240 -10.9106
     5.5757   6.9344   7.1863   7.7690

          k = 0.2611 0.4523 0.3331 (  4447 PWs)   bands (ev):

   -29.6844 -29.6559 -11.8547 -11.7981 -11.3083 -11.1642 -10.9250 -10.8536
     6.0883   6.6877   7.4927   7.5948

          k = 0.2611 0.6533 0.0666 (  4440 PWs)   bands (ev):

   -29.6935 -29.6389 -11.6292 -11.5303 -11.4082 -11.2944 -11.1471 -10.9714
     5.8778   6.5392   6.7841   8.0942

          k = 0.2611 0.6533 0.1999 (  4450 PWs)   bands (ev):

   -29.6857 -29.6457 -11.7672 -11.6705 -11.4857 -11.0707 -11.0460 -10.9459
     6.1163   6.8209   7.0187   7.7118

          k = 0.2611 0.6533 0.3331 (  4441 PWs)   bands (ev):

   -29.6721 -29.6576 -11.8583 -11.8224 -11.3599 -11.2011 -10.8954 -10.8547
     6.5426   7.0544   7.2029   7.3430

          k = 0.2611-0.3518 0.0666 (  4442 PWs)   bands (ev):

   -29.7597 -29.6002 -11.6929 -11.5054 -11.3656 -11.2448 -11.0030 -10.9156
     4.6177   6.7169   7.4082   8.2769

          k = 0.2611-0.3518 0.1999 (  4438 PWs)   bands (ev):

   -29.7380 -29.6210 -11.8123 -11.5812 -11.3179 -11.1641 -10.9843 -10.8798
     4.9451   6.7070   7.6142   7.9609

          k = 0.2611-0.3518 0.3331 (  4444 PWs)   bands (ev):

   -29.7007 -29.6578 -11.8377 -11.7473 -11.2300 -11.1047 -10.9672 -10.8650
     5.5313   6.2332   7.8593   7.9244

          k = 0.2611-0.1508 0.0666 (  4444 PWs)   bands (ev):

   -29.8171 -29.5800 -11.8209 -11.3817 -11.2498 -11.1579 -10.8989 -10.8682
     3.5444   6.4162   8.4827   8.5679

          k = 0.2611-0.1508 0.1999 (  4445 PWs)   bands (ev):

   -29.7855 -29.6118 -11.8243 -11.3947 -11.2064 -11.1998 -10.9205 -10.8566
     3.9329   6.1539   8.4453   8.6727

          k = 0.2611-0.1508 0.3331 (  4452 PWs)   bands (ev):

   -29.7307 -29.6671 -11.7565 -11.5995 -11.1124 -11.0417 -11.0101 -10.9065
     4.6263   5.4621   8.6376   8.7879

          k = 0.4352 0.7538 0.0666 (  4450 PWs)   bands (ev):

   -29.7064 -29.6300 -11.6818 -11.4820 -11.4041 -11.3199 -11.1229 -10.9324
     5.9291   6.2432   6.8507   8.1135

          k = 0.4352 0.7538 0.1999 (  4439 PWs)   bands (ev):

   -29.6953 -29.6394 -11.8282 -11.6491 -11.4193 -11.1022 -11.0245 -10.9258
     6.1388   6.5582   7.0574   7.6877

          k = 0.4352 0.7538 0.3331 (  4442 PWs)   bands (ev):

   -29.6770 -29.6565 -11.8919 -11.8287 -11.2954 -11.1487 -10.9275 -10.8628
     6.5395   6.9820   7.1088   7.2104

          k = 0.4352-0.2513 0.0666 (  4457 PWs)   bands (ev):

   -29.7404 -29.6100 -11.7193 -11.4962 -11.3483 -11.3222 -11.0539 -10.8730
     5.1383   6.6780   6.8626   8.2006

          k = 0.4352-0.2513 0.1999 (  4465 PWs)   bands (ev):

   -29.7224 -29.6272 -11.8711 -11.6144 -11.2639 -11.2176 -10.9351 -10.9195
     5.4257   6.8773   6.9718   7.7932

          k = 0.4352-0.2513 0.3331 (  4445 PWs)   bands (ev):

   -29.6915 -29.6565 -11.9061 -11.8121 -11.1615 -11.0412 -11.0101 -10.8994
     5.9360   6.5451   7.3160   7.5574

!    total energy              =    -151.38135058 Ry
     Harris-Foulkes estimate   =    -151.38135058 Ry
     estimated scf accuracy    <          1.6E-09 Ry

     The total energy is the sum of the following terms:

     one-electron contribution =     -36.32901554 Ry
     hartree contribution      =      26.38694461 Ry
     xc contribution           =     -23.94140386 Ry
     ewald contribution        =    -117.49787579 Ry

     convergence has been achieved in   8 iterations

     Forces acting on atoms (Ry/au):

     atom    1 type  2   force =    -0.00000000   -0.00000000    0.00000000
     atom    2 type  2   force =     0.00000000    0.00000000    0.00000000
     atom    3 type  1   force =    -0.00000000    0.00000000    0.00000000
     atom    4 type  1   force =     0.00000000   -0.00000000    0.00000000
     atom    5 type  1   force =    -0.00000000    0.00000000   -0.00000000
     atom    6 type  1   force =     0.00000000    0.00000000   -0.00000000

     Total force =     0.000000     Total SCF correction =     0.000000


     entering subroutine stress ...

          total   stress  (Ry/bohr**3)                   (kbar)     P=  405.97
   0.00281553   0.00000000   0.00000000        414.18      0.00      0.00
   0.00000000   0.00281553  -0.00000000          0.00    414.18     -0.00
   0.00000000   0.00000000   0.00264810          0.00      0.00    389.55


     number of scf cycles    =   3
     number of bfgs steps    =   2

     enthalpy old            =    -150.5046322183 Ry
     enthalpy new            =    -150.5063050074 Ry

     CASE: enthalpy_new < enthalpy_old

     new trust radius        =       0.0069792295 bohr
     new conv_thr            =       0.0000000100 Ry

     new unit-cell volume =    322.40152 a.u.^3 (    47.77498 Ang^3 )

CELL_PARAMETERS (alat=  6.86950000)
   0.959155301   0.000000000   0.000000000
  -0.479577651   0.830652857   0.000000000
   0.000000000  -0.000000000   1.248283410

ATOMIC_POSITIONS (crystal)
Ca       0.333333333   0.666666667   0.250000000
Ca       0.666666667   0.333333333   0.750000000
H        0.333333333   0.666666667   0.750000000
H        0.666666667   0.333333333   0.250000000
H       -0.000000000   0.000000000   0.000000000
H        0.000000000   0.000000000   0.500000000



     Writing output data file CaH2_ambient.save
     NEW-OLD atomic charge density approx. for the potential
     NEW k-points:
        k(    1) = (   0.0868820   0.1504840   0.0667583), wk =   0.0370370
        k(    2) = (   0.0868820   0.1504840   0.2002750), wk =   0.0370370
        k(    3) = (   0.0868820   0.1504840   0.3337917), wk =   0.0370370
        k(    4) = (   0.0868820   0.3511294   0.0667583), wk =   0.0740741
        k(    5) = (   0.0868820   0.3511294   0.2002750), wk =   0.0740741
        k(    6) = (   0.0868820   0.3511294   0.3337917), wk =   0.0740741
        k(    7) = (   0.0868820   0.5517748   0.0667583), wk =   0.0740741
        k(    8) = (   0.0868820   0.5517748   0.2002750), wk =   0.0740741
        k(    9) = (   0.0868820   0.5517748   0.3337917), wk =   0.0740741
        k(   10) = (   0.0868820  -0.4514521   0.0667583), wk =   0.0740741
        k(   11) = (   0.0868820  -0.4514521   0.2002750), wk =   0.0740741
        k(   12) = (   0.0868820  -0.4514521   0.3337917), wk =   0.0740741
        k(   13) = (   0.0868820  -0.2508067   0.0667583), wk =   0.0740741
        k(   14) = (   0.0868820  -0.2508067   0.2002750), wk =   0.0740741
        k(   15) = (   0.0868820  -0.2508067   0.3337917), wk =   0.0740741
        k(   16) = (   0.0868820  -0.0501613   0.0667583), wk =   0.0370370
        k(   17) = (   0.0868820  -0.0501613   0.2002750), wk =   0.0370370
        k(   18) = (   0.0868820  -0.0501613   0.3337917), wk =   0.0370370
        k(   19) = (   0.2606460   0.4514521   0.0667583), wk =   0.0370370
        k(   20) = (   0.2606460   0.4514521   0.2002750), wk =   0.0370370
        k(   21) = (   0.2606460   0.4514521   0.3337917), wk =   0.0370370
        k(   22) = (   0.2606460   0.6520975   0.0667583), wk =   0.0740741
        k(   23) = (   0.2606460   0.6520975   0.2002750), wk =   0.0740741
        k(   24) = (   0.2606460   0.6520975   0.3337917), wk =   0.0740741
        k(   25) = (   0.2606460  -0.3511294   0.0667583), wk =   0.0740741
        k(   26) = (   0.2606460  -0.3511294   0.2002750), wk =   0.0740741
        k(   27) = (   0.2606460  -0.3511294   0.3337917), wk =   0.0740741
        k(   28) = (   0.2606460  -0.1504840   0.0667583), wk =   0.0370370
        k(   29) = (   0.2606460  -0.1504840   0.2002750), wk =   0.0370370
        k(   30) = (   0.2606460  -0.1504840   0.3337917), wk =   0.0370370
        k(   31) = (   0.4344100   0.7524202   0.0667583), wk =   0.0370370
        k(   32) = (   0.4344100   0.7524202   0.2002750), wk =   0.0370370
        k(   33) = (   0.4344100   0.7524202   0.3337917), wk =   0.0370370
        k(   34) = (   0.4344100  -0.2508067   0.0667583), wk =   0.0370370
        k(   35) = (   0.4344100  -0.2508067   0.2002750), wk =   0.0370370
        k(   36) = (   0.4344100  -0.2508067   0.3337917), wk =   0.0370370
     extrapolated charge   24.03675, renormalised to   24.00000

     total cpu time spent up to now is      560.8 secs

     per-process dynamical memory:    23.0 Mb

     Self-consistent Calculation

     iteration #  1     ecut=    80.00 Ry     beta=0.30
     Davidson diagonalization with overlap
     ethr =  1.00E-06,  avg # of iterations =  2.6

     total cpu time spent up to now is      572.9 secs

     total energy              =    -151.38304258 Ry
     Harris-Foulkes estimate   =    -151.34975042 Ry
     estimated scf accuracy    <       0.00006570 Ry

     iteration #  2     ecut=    80.00 Ry     beta=0.30
     Davidson diagonalization with overlap
     ethr =  2.74E-07,  avg # of iterations =  2.0

     total cpu time spent up to now is      584.7 secs

     total energy              =    -151.38308615 Ry
     Harris-Foulkes estimate   =    -151.38308655 Ry
     estimated scf accuracy    <       0.00000265 Ry

     iteration #  3     ecut=    80.00 Ry     beta=0.30
     Davidson diagonalization with overlap
     ethr =  1.10E-08,  avg # of iterations =  1.1

     total cpu time spent up to now is      593.0 secs

     total energy              =    -151.38308539 Ry
     Harris-Foulkes estimate   =    -151.38308621 Ry
     estimated scf accuracy    <       0.00000158 Ry

     iteration #  4     ecut=    80.00 Ry     beta=0.30
     Davidson diagonalization with overlap
     ethr =  6.60E-09,  avg # of iterations =  2.0

     total cpu time spent up to now is      604.5 secs

     total energy              =    -151.38308571 Ry
     Harris-Foulkes estimate   =    -151.38308571 Ry
     estimated scf accuracy    <       0.00000003 Ry

     iteration #  5     ecut=    80.00 Ry     beta=0.30
     Davidson diagonalization with overlap
     ethr =  1.39E-10,  avg # of iterations =  1.3

     total cpu time spent up to now is      612.9 secs

     total energy              =    -151.38308571 Ry
     Harris-Foulkes estimate   =    -151.38308571 Ry
     estimated scf accuracy    <       0.00000001 Ry

     iteration #  6     ecut=    80.00 Ry     beta=0.30
     Davidson diagonalization with overlap
     ethr =  5.05E-11,  avg # of iterations =  2.0

     total cpu time spent up to now is      621.8 secs

     End of self-consistent calculation

          k = 0.0869 0.1505 0.0668 (  4433 PWs)   bands (ev):

   -29.8906 -29.6000 -11.9488 -11.2626 -11.2391 -11.0271 -10.9044 -10.8596
     2.7461   6.0510   8.8223   9.7905

          k = 0.0869 0.1505 0.2003 (  4435 PWs)   bands (ev):

   -29.8523 -29.6395 -11.8591 -11.2311 -11.1934 -11.1682 -10.9490 -10.8803
     3.1847   5.6633   8.9795   9.9010

          k = 0.0869 0.1505 0.3338 (  4455 PWs)   bands (ev):

   -29.7858 -29.7078 -11.6855 -11.4530 -11.1125 -11.0806 -11.0255 -10.9629
     3.9569   4.8747   9.4520   9.8650

          k = 0.0869 0.3511 0.0668 (  4441 PWs)   bands (ev):

   -29.8234 -29.6181 -11.7935 -11.4681 -11.3447 -11.2276 -10.9738 -10.9123
     3.9799   6.5434   7.9166   8.4315

          k = 0.0869 0.3511 0.2003 (  4446 PWs)   bands (ev):

   -29.7958 -29.6456 -11.8533 -11.5146 -11.2773 -11.2269 -10.9733 -10.8937
     4.3436   6.3886   8.0727   8.2417

          k = 0.0869 0.3511 0.3338 (  4452 PWs)   bands (ev):

   -29.7481 -29.6932 -11.8316 -11.7052 -11.1871 -11.0768 -11.0405 -10.9170
     4.9948   5.7794   8.2443   8.3242

          k = 0.0869 0.5518 0.0668 (  4457 PWs)   bands (ev):

   -29.7550 -29.6507 -11.7416 -11.5060 -11.4052 -11.3645 -11.1173 -10.9205
     5.5543   6.3407   6.8176   8.1567

          k = 0.0869 0.5518 0.2003 (  4454 PWs)   bands (ev):

   -29.7405 -29.6639 -11.8958 -11.6653 -11.3596 -11.1945 -11.0022 -10.9453
     5.8123   6.6112   6.9769   7.6980

          k = 0.0869 0.5518 0.3338 (  4444 PWs)   bands (ev):

   -29.7155 -29.6873 -11.9427 -11.8594 -11.2417 -11.1101 -11.0041 -10.9121
     6.2669   6.7998   7.0442   7.3109

          k = 0.0869-0.4515 0.0668 (  4446 PWs)   bands (ev):

   -29.7842 -29.6345 -11.7341 -11.5375 -11.3719 -11.3190 -11.0540 -10.9173
     4.7696   6.6988   7.1262   8.2542

          k = 0.0869-0.4515 0.2003 (  4453 PWs)   bands (ev):

   -29.7639 -29.6541 -11.8733 -11.6168 -11.3294 -11.2140 -10.9885 -10.9233
     5.0849   6.7457   7.3131   7.8966

          k = 0.0869-0.4515 0.3338 (  4446 PWs)   bands (ev):

   -29.7287 -29.6882 -11.9013 -11.8054 -11.2218 -11.0977 -11.0191 -10.9115
     5.6482   6.3218   7.6013   7.7693

          k = 0.0869-0.2508 0.0668 (  4445 PWs)   bands (ev):

   -29.8613 -29.6069 -11.8792 -11.3510 -11.2980 -11.1262 -10.9093 -10.9031
     3.2760   6.2957   8.6398   8.8267

          k = 0.0869-0.2508 0.2003 (  4435 PWs)   bands (ev):

   -29.8274 -29.6409 -11.8505 -11.3734 -11.2200 -11.2169 -10.9597 -10.8756
     3.6821   5.9939   8.6074   8.9797

          k = 0.0869-0.2508 0.3338 (  4447 PWs)   bands (ev):

   -29.7687 -29.7005 -11.7529 -11.5779 -11.1469 -11.0678 -11.0455 -10.9341
     4.4037   5.2693   8.8631   9.0679

          k = 0.0869-0.0502 0.0668 (  4430 PWs)   bands (ev):

   -29.9065 -29.5971 -11.9867 -11.2176 -11.2030 -10.9555 -10.9036 -10.8426
     2.4612   5.9017   8.9257  10.5446

          k = 0.0869-0.0502 0.2003 (  4422 PWs)   bands (ev):

   -29.8657 -29.6392 -11.8673 -11.1706 -11.1632 -11.1060 -10.9441 -10.9036
     2.9178   5.4767   9.2059  10.6212

          k = 0.0869-0.0502 0.3338 (  4450 PWs)   bands (ev):

   -29.7951 -29.7122 -11.6469 -11.3692 -11.0941 -11.0858 -11.0139 -10.9900
     3.7168   4.6601   9.8503  10.4626

          k = 0.2606 0.4515 0.0668 (  4434 PWs)   bands (ev):

   -29.7554 -29.6495 -11.6442 -11.6079 -11.3757 -11.3505 -11.1044 -10.9795
     5.2565   6.7485   6.9159   8.1627

          k = 0.2606 0.4515 0.2003 (  4442 PWs)   bands (ev):

   -29.7408 -29.6632 -11.8162 -11.6790 -11.4400 -11.1428 -11.0532 -10.9393
     5.5486   6.9063   7.1583   7.7649

          k = 0.2606 0.4515 0.3338 (  4447 PWs)   bands (ev):

   -29.7157 -29.6872 -11.8844 -11.8275 -11.3384 -11.1935 -10.9533 -10.8820
     6.0658   6.6687   7.4693   7.5760

          k = 0.2606 0.6521 0.0668 (  4440 PWs)   bands (ev):

   -29.7250 -29.6703 -11.6578 -11.5599 -11.4370 -11.3229 -11.1761 -10.9993
     5.8476   6.5059   6.7508   8.0996

          k = 0.2606 0.6521 0.2003 (  4450 PWs)   bands (ev):

   -29.7171 -29.6771 -11.7964 -11.6996 -11.5159 -11.0985 -11.0745 -10.9744
     6.0893   6.7904   6.9886   7.7093

          k = 0.2606 0.6521 0.3338 (  4441 PWs)   bands (ev):

   -29.7035 -29.6890 -11.8880 -11.8520 -11.3892 -11.2297 -10.9236 -10.8830
     6.5210   7.0359   7.1777   7.3217

          k = 0.2606-0.3511 0.0668 (  4442 PWs)   bands (ev):

   -29.7910 -29.6311 -11.7219 -11.5345 -11.3944 -11.2750 -11.0330 -10.9452
     4.5898   6.6860   7.3773   8.2823

          k = 0.2606-0.3511 0.2003 (  4438 PWs)   bands (ev):

   -29.7692 -29.6520 -11.8417 -11.6097 -11.3499 -11.1924 -11.0143 -10.9089
     4.9198   6.6835   7.5868   7.9540

          k = 0.2606-0.3511 0.3338 (  4444 PWs)   bands (ev):

   -29.7318 -29.6888 -11.8673 -11.7767 -11.2612 -11.1350 -10.9959 -10.8937
     5.5101   6.2152   7.8374   7.9060

          k = 0.2606-0.1505 0.0668 (  4444 PWs)   bands (ev):

   -29.8480 -29.6104 -11.8490 -11.4115 -11.2838 -11.1866 -10.9294 -10.8995
     3.5211   6.3905   8.4526   8.5696

          k = 0.2606-0.1505 0.2003 (  4445 PWs)   bands (ev):

   -29.8163 -29.6423 -11.8534 -11.4241 -11.2360 -11.2334 -10.9521 -10.8861
     3.9118   6.1356   8.4359   8.6450

          k = 0.2606-0.1505 0.3338 (  4452 PWs)   bands (ev):

   -29.7614 -29.6977 -11.7863 -11.6295 -11.1454 -11.0709 -11.0424 -10.9357
     4.6086   5.4470   8.6207   8.7653

          k = 0.4344 0.7524 0.0668 (  4450 PWs)   bands (ev):

   -29.7379 -29.6613 -11.7093 -11.5126 -11.4316 -11.3497 -11.1518 -10.9614
     5.8996   6.2096   6.8195   8.1192

          k = 0.4344 0.7524 0.2003 (  4439 PWs)   bands (ev):

   -29.7267 -29.6708 -11.8567 -11.6778 -11.4501 -11.1307 -11.0531 -10.9546
     6.1124   6.5281   7.0291   7.6848

          k = 0.4344 0.7524 0.3338 (  4442 PWs)   bands (ev):

   -29.7083 -29.6879 -11.9209 -11.8578 -11.3257 -11.1782 -10.9558 -10.8910
     6.5190   6.9605   7.0916   7.1850

          k = 0.4344-0.2508 0.0668 (  4457 PWs)   bands (ev):

   -29.7717 -29.6411 -11.7469 -11.5238 -11.3750 -11.3557 -11.0833 -10.9035
     5.1094   6.6434   6.8364   8.2065

          k = 0.4344-0.2508 0.2003 (  4465 PWs)   bands (ev):

   -29.7537 -29.6583 -11.8994 -11.6424 -11.2970 -11.2451 -10.9660 -10.9477
     5.3998   6.8499   6.9479   7.7870

          k = 0.4344-0.2508 0.3338 (  4445 PWs)   bands (ev):

   -29.7227 -29.6876 -11.9348 -11.8406 -11.1939 -11.0728 -11.0377 -10.9272
     5.9151   6.5287   7.2922   7.5384

!    total energy              =    -151.38308571 Ry
     Harris-Foulkes estimate   =    -151.38308571 Ry
     estimated scf accuracy    <          8.7E-11 Ry

     The total energy is the sum of the following terms:

     one-electron contribution =     -36.44596362 Ry
     hartree contribution      =      26.41860548 Ry
     xc contribution           =     -23.93691119 Ry
     ewald contribution        =    -117.41881638 Ry

     convergence has been achieved in   6 iterations

     Forces acting on atoms (Ry/au):

     atom    1 type  2   force =     0.00000000    0.00000000   -0.00000000
     atom    2 type  2   force =     0.00000000    0.00000000    0.00000000
     atom    3 type  1   force =    -0.00000000    0.00000000   -0.00000000
     atom    4 type  1   force =     0.00000000    0.00000000    0.00000000
     atom    5 type  1   force =     0.00000000    0.00000000    0.00000000
     atom    6 type  1   force =     0.00000000    0.00000000   -0.00000000

     Total force =     0.000000     Total SCF correction =     0.000000


     entering subroutine stress ...

          total   stress  (Ry/bohr**3)                   (kbar)     P=  401.56
   0.00276221   0.00000000  -0.00000000        406.34      0.00     -0.00
   0.00000000   0.00276221  -0.00000000          0.00    406.34     -0.00
   0.00000000   0.00000000   0.00266486          0.00      0.00    392.01


     number of scf cycles    =   4
     number of bfgs steps    =   3

     enthalpy old            =    -150.5063050074 Ry
     enthalpy new            =    -150.5064291787 Ry

     CASE: enthalpy_new < enthalpy_old

     new trust radius        =       0.0076991930 bohr
     new conv_thr            =       0.0000000100 Ry

     new unit-cell volume =    322.42889 a.u.^3 (    47.77903 Ang^3 )

CELL_PARAMETERS (alat=  6.86950000)
   0.960225910   0.000000000   0.000000000
  -0.480112955   0.831580031   0.000000000
  -0.000000000  -0.000000000   1.245607141

ATOMIC_POSITIONS (crystal)
Ca       0.333333333   0.666666667   0.250000000
Ca       0.666666667   0.333333333   0.750000000
H        0.333333333   0.666666667   0.750000000
H        0.666666667   0.333333333   0.250000000
H       -0.000000000   0.000000000   0.000000000
H        0.000000000   0.000000000   0.500000000



     Writing output data file CaH2_ambient.save
     NEW-OLD atomic charge density approx. for the potential
     NEW k-points:
        k(    1) = (   0.0867851   0.1503163   0.0669018), wk =   0.0370370
        k(    2) = (   0.0867851   0.1503163   0.2007053), wk =   0.0370370
        k(    3) = (   0.0867851   0.1503163   0.3345089), wk =   0.0370370
        k(    4) = (   0.0867851   0.3507379   0.0669018), wk =   0.0740741
        k(    5) = (   0.0867851   0.3507379   0.2007053), wk =   0.0740741
        k(    6) = (   0.0867851   0.3507379   0.3345089), wk =   0.0740741
        k(    7) = (   0.0867851   0.5511596   0.0669018), wk =   0.0740741
        k(    8) = (   0.0867851   0.5511596   0.2007053), wk =   0.0740741
        k(    9) = (   0.0867851   0.5511596   0.3345089), wk =   0.0740741
        k(   10) = (   0.0867851  -0.4509488   0.0669018), wk =   0.0740741
        k(   11) = (   0.0867851  -0.4509488   0.2007053), wk =   0.0740741
        k(   12) = (   0.0867851  -0.4509488   0.3345089), wk =   0.0740741
        k(   13) = (   0.0867851  -0.2505271   0.0669018), wk =   0.0740741
        k(   14) = (   0.0867851  -0.2505271   0.2007053), wk =   0.0740741
        k(   15) = (   0.0867851  -0.2505271   0.3345089), wk =   0.0740741
        k(   16) = (   0.0867851  -0.0501054   0.0669018), wk =   0.0370370
        k(   17) = (   0.0867851  -0.0501054   0.2007053), wk =   0.0370370
        k(   18) = (   0.0867851  -0.0501054   0.3345089), wk =   0.0370370
        k(   19) = (   0.2603554   0.4509488   0.0669018), wk =   0.0370370
        k(   20) = (   0.2603554   0.4509488   0.2007053), wk =   0.0370370
        k(   21) = (   0.2603554   0.4509488   0.3345089), wk =   0.0370370
        k(   22) = (   0.2603554   0.6513705   0.0669018), wk =   0.0740741
        k(   23) = (   0.2603554   0.6513705   0.2007053), wk =   0.0740741
        k(   24) = (   0.2603554   0.6513705   0.3345089), wk =   0.0740741
        k(   25) = (   0.2603554  -0.3507379   0.0669018), wk =   0.0740741
        k(   26) = (   0.2603554  -0.3507379   0.2007053), wk =   0.0740741
        k(   27) = (   0.2603554  -0.3507379   0.3345089), wk =   0.0740741
        k(   28) = (   0.2603554  -0.1503163   0.0669018), wk =   0.0370370
        k(   29) = (   0.2603554  -0.1503163   0.2007053), wk =   0.0370370
        k(   30) = (   0.2603554  -0.1503163   0.3345089), wk =   0.0370370
        k(   31) = (   0.4339257   0.7515813   0.0669018), wk =   0.0370370
        k(   32) = (   0.4339257   0.7515813   0.2007053), wk =   0.0370370
        k(   33) = (   0.4339257   0.7515813   0.3345089), wk =   0.0370370
        k(   34) = (   0.4339257  -0.2505271   0.0669018), wk =   0.0370370
        k(   35) = (   0.4339257  -0.2505271   0.2007053), wk =   0.0370370
        k(   36) = (   0.4339257  -0.2505271   0.3345089), wk =   0.0370370
     extrapolated charge   24.00170, renormalised to   24.00000

     total cpu time spent up to now is      707.1 secs

     per-process dynamical memory:    23.0 Mb

     Self-consistent Calculation

     iteration #  1     ecut=    80.00 Ry     beta=0.30
     Davidson diagonalization with overlap
     ethr =  1.00E-06,  avg # of iterations =  2.1

     Threshold (ethr) on eigenvalues was too large:
     Diagonalizing with lowered threshold

     Davidson diagonalization with overlap
     ethr =  2.52E-09,  avg # of iterations =  3.1

     total cpu time spent up to now is      730.4 secs

     total energy              =    -151.38320886 Ry
     Harris-Foulkes estimate   =    -151.38166934 Ry
     estimated scf accuracy    <       0.00000063 Ry

     iteration #  2     ecut=    80.00 Ry     beta=0.30
     Davidson diagonalization with overlap
     ethr =  2.61E-09,  avg # of iterations =  2.0

     total cpu time spent up to now is      740.9 secs

     total energy              =    -151.38320899 Ry
     Harris-Foulkes estimate   =    -151.38320895 Ry
     estimated scf accuracy    <       0.00000031 Ry

     iteration #  3     ecut=    80.00 Ry     beta=0.30
     Davidson diagonalization with overlap
     ethr =  1.30E-09,  avg # of iterations =  1.0

     total cpu time spent up to now is      749.3 secs

     total energy              =    -151.38320901 Ry
     Harris-Foulkes estimate   =    -151.38320900 Ry
     estimated scf accuracy    <       0.00000012 Ry

     iteration #  4     ecut=    80.00 Ry     beta=0.30
     Davidson diagonalization with overlap
     ethr =  4.86E-10,  avg # of iterations =  2.0

     total cpu time spent up to now is      758.5 secs

     End of self-consistent calculation

          k = 0.0868 0.1503 0.0669 (  4433 PWs)   bands (ev):

   -29.8969 -29.6043 -11.9541 -11.2705 -11.2478 -11.0322 -10.9097 -10.8636
     2.7443   6.0477   8.8458   9.7752

          k = 0.0868 0.1503 0.2007 (  4435 PWs)   bands (ev):

   -29.8583 -29.6441 -11.8650 -11.2377 -11.2004 -11.1756 -10.9547 -10.8845
     3.1852   5.6669   8.9920   9.8904

          k = 0.0868 0.1503 0.3345 (  4455 PWs)   bands (ev):

   -29.7914 -29.7128 -11.6920 -11.4594 -11.1200 -11.0864 -11.0321 -10.9677
     3.9608   4.8809   9.4564   9.8625

          k = 0.0868 0.3507 0.0669 (  4441 PWs)   bands (ev):

   -29.8297 -29.6231 -11.7994 -11.4736 -11.3517 -11.2326 -10.9778 -10.9168
     3.9748   6.5354   7.9055   8.4531

          k = 0.0868 0.3507 0.2007 (  4446 PWs)   bands (ev):

   -29.8019 -29.6507 -11.8603 -11.5202 -11.2846 -11.2317 -10.9783 -10.8967
     4.3408   6.3884   8.0682   8.2482

          k = 0.0868 0.3507 0.3345 (  4452 PWs)   bands (ev):

   -29.7539 -29.6987 -11.8390 -11.7120 -11.1941 -11.0823 -11.0442 -10.9199
     4.9956   5.7829   8.2446   8.3230

          k = 0.0868 0.5512 0.0669 (  4457 PWs)   bands (ev):

   -29.7612 -29.6562 -11.7467 -11.5112 -11.4086 -11.3722 -11.1210 -10.9245
     5.5462   6.3306   6.8081   8.1775

          k = 0.0868 0.5512 0.2007 (  4454 PWs)   bands (ev):

   -29.7466 -29.6695 -11.9022 -11.6708 -11.3667 -11.1982 -11.0060 -10.9484
     5.8068   6.6045   6.9715   7.7106

          k = 0.0868 0.5512 0.3345 (  4444 PWs)   bands (ev):

   -29.7214 -29.6931 -11.9497 -11.8661 -11.2483 -11.1155 -11.0066 -10.9142
     6.2660   6.8034   7.0406   7.3112

          k = 0.0868-0.4509 0.0669 (  4446 PWs)   bands (ev):

   -29.7905 -29.6398 -11.7399 -11.5423 -11.3778 -11.3245 -11.0579 -10.9214
     4.7628   6.6886   7.1168   8.2752

          k = 0.0868-0.4509 0.2007 (  4453 PWs)   bands (ev):

   -29.7700 -29.6595 -11.8802 -11.6223 -11.3366 -11.2180 -10.9929 -10.9261
     5.0805   6.7426   7.3071   7.9064

          k = 0.0868-0.4509 0.3345 (  4446 PWs)   bands (ev):

   -29.7346 -29.6938 -11.9085 -11.8122 -11.2285 -11.1032 -11.0220 -10.9138
     5.6477   6.3246   7.5992   7.7701

          k = 0.0868-0.2505 0.0669 (  4445 PWs)   bands (ev):

   -29.8676 -29.6114 -11.8848 -11.3578 -11.3059 -11.1312 -10.9141 -10.9073
     3.2727   6.2902   8.6622   8.8139

          k = 0.0868-0.2505 0.2007 (  4435 PWs)   bands (ev):

   -29.8334 -29.6457 -11.8570 -11.3793 -11.2263 -11.2242 -10.9651 -10.8791
     3.6810   5.9958   8.6180   8.9706

          k = 0.0868-0.2505 0.3345 (  4447 PWs)   bands (ev):

   -29.7744 -29.7057 -11.7600 -11.5847 -11.1541 -11.0722 -11.0518 -10.9378
     4.4061   5.2742   8.8658   9.0651

          k = 0.0868-0.0501 0.0669 (  4430 PWs)   bands (ev):

   -29.9128 -29.6013 -11.9919 -11.2261 -11.2119 -10.9608 -10.9091 -10.8466
     2.4603   5.8996   8.9498  10.5272

          k = 0.0868-0.0501 0.2007 (  4422 PWs)   bands (ev):

   -29.8717 -29.6437 -11.8728 -11.1785 -11.1717 -11.1115 -10.9501 -10.9085
     2.9192   5.4812   9.2198  10.6096

          k = 0.0868-0.0501 0.3345 (  4450 PWs)   bands (ev):

   -29.8006 -29.7171 -11.6528 -11.3750 -11.1018 -11.0928 -11.0207 -10.9959
     3.7215   4.6671   9.8567  10.4611

          k = 0.2604 0.4509 0.0669 (  4434 PWs)   bands (ev):

   -29.7616 -29.6550 -11.6501 -11.6141 -11.3799 -11.3560 -11.1085 -10.9825
     5.2484   6.7375   6.9058   8.1830

          k = 0.2604 0.4509 0.2007 (  4442 PWs)   bands (ev):

   -29.7469 -29.6688 -11.8232 -11.6849 -11.4471 -11.1457 -11.0570 -10.9420
     5.5431   6.9004   7.1511   7.7770

          k = 0.2604 0.4509 0.3345 (  4447 PWs)   bands (ev):

   -29.7217 -29.6929 -11.8919 -11.8347 -11.3444 -11.1981 -10.9559 -10.8843
     6.0644   6.6705   7.4665   7.5767

          k = 0.2604 0.6514 0.0669 (  4440 PWs)   bands (ev):

   -29.7311 -29.6761 -11.6639 -11.5661 -11.4421 -11.3271 -11.1800 -11.0019
     5.8390   6.4951   6.7396   8.1194

          k = 0.2604 0.6514 0.2007 (  4450 PWs)   bands (ev):

   -29.7232 -29.6829 -11.8033 -11.7059 -11.5226 -11.1013 -11.0778 -10.9771
     6.0832   6.7826   6.9809   7.7226

          k = 0.2604 0.6514 0.3345 (  4441 PWs)   bands (ev):

   -29.7095 -29.6948 -11.8956 -11.8595 -11.3948 -11.2340 -10.9258 -10.8851
     6.5194   7.0376   7.1747   7.3212

          k = 0.2604-0.3507 0.0669 (  4442 PWs)   bands (ev):

   -29.7973 -29.6364 -11.7278 -11.5404 -11.3994 -11.2805 -11.0370 -10.9490
     4.5832   6.6762   7.3669   8.3033

          k = 0.2604-0.3507 0.2007 (  4438 PWs)   bands (ev):

   -29.7754 -29.6573 -11.8488 -11.6154 -11.3573 -11.1959 -11.0187 -10.9118
     4.9155   6.6809   7.5798   7.9640

          k = 0.2604-0.3507 0.3345 (  4444 PWs)   bands (ev):

   -29.7377 -29.6944 -11.8748 -11.7836 -11.2677 -11.1401 -10.9989 -10.8963
     5.5097   6.2178   7.8353   7.9067

          k = 0.2604-0.1503 0.0669 (  4444 PWs)   bands (ev):

   -29.8543 -29.6152 -11.8546 -11.4175 -11.2926 -11.1907 -10.9334 -10.9044
     3.5171   6.3841   8.4420   8.5902

          k = 0.2604-0.1503 0.2007 (  4445 PWs)   bands (ev):

   -29.8224 -29.6472 -11.8601 -11.4297 -11.2417 -11.2408 -10.9575 -10.8893
     3.9101   6.1369   8.4442   8.6383

          k = 0.2604-0.1503 0.3345 (  4452 PWs)   bands (ev):

   -29.7671 -29.7030 -11.7936 -11.6364 -11.1528 -11.0747 -11.0488 -10.9389
     4.6104   5.4514   8.6226   8.7628

          k = 0.4339 0.7516 0.0669 (  4450 PWs)   bands (ev):

   -29.7441 -29.6670 -11.7146 -11.5194 -11.4356 -11.3551 -11.1554 -10.9647
     5.8913   6.1989   6.8090   8.1394

          k = 0.4339 0.7516 0.2007 (  4439 PWs)   bands (ev):

   -29.7329 -29.6765 -11.8632 -11.6837 -11.4570 -11.1341 -11.0564 -10.9574
     6.1065   6.5208   7.0221   7.6981

          k = 0.4339 0.7516 0.3345 (  4442 PWs)   bands (ev):

   -29.7143 -29.6937 -11.9282 -11.8648 -11.3317 -11.1830 -10.9582 -10.8932
     6.5178   6.9592   7.0950   7.1820

          k = 0.4339-0.2505 0.0669 (  4457 PWs)   bands (ev):

   -29.7780 -29.6465 -11.7523 -11.5282 -11.3782 -11.3644 -11.0871 -10.9077
     5.1020   6.6322   6.8284   8.2276

          k = 0.4339-0.2505 0.2007 (  4465 PWs)   bands (ev):

   -29.7599 -29.6638 -11.9059 -11.6477 -11.3051 -11.2483 -10.9709 -10.9500
     5.3950   6.8443   6.9436   7.7979

          k = 0.4339-0.2505 0.3345 (  4445 PWs)   bands (ev):

   -29.7286 -29.6933 -11.9418 -11.8472 -11.2010 -11.0787 -11.0400 -10.9292
     5.9145   6.5317   7.2895   7.5392

!    total energy              =    -151.38320902 Ry
     Harris-Foulkes estimate   =    -151.38320902 Ry
     estimated scf accuracy    <          1.4E-09 Ry

     The total energy is the sum of the following terms:

     one-electron contribution =     -36.45953932 Ry
     hartree contribution      =      26.42158829 Ry
     xc contribution           =     -23.93597322 Ry
     ewald contribution        =    -117.40928477 Ry

     convergence has been achieved in   4 iterations

     Forces acting on atoms (Ry/au):

     atom    1 type  2   force =    -0.00000000    0.00000000    0.00000000
     atom    2 type  2   force =     0.00000000   -0.00000000    0.00000000
     atom    3 type  1   force =    -0.00000000    0.00000000    0.00000000
     atom    4 type  1   force =     0.00000000   -0.00000000   -0.00000000
     atom    5 type  1   force =     0.00000000    0.00000000    0.00000000
     atom    6 type  1   force =     0.00000000    0.00000000    0.00000000

     Total force =     0.000000     Total SCF correction =     0.000000


     entering subroutine stress ...

          total   stress  (Ry/bohr**3)                   (kbar)     P=  400.65
   0.00273742   0.00000000  -0.00000000        402.69      0.00     -0.00
   0.00000000   0.00273742   0.00000000          0.00    402.69      0.00
  -0.00000000   0.00000000   0.00269583         -0.00      0.00    396.57


     number of scf cycles    =   5
     number of bfgs steps    =   4

     enthalpy old            =    -150.5064291787 Ry
     enthalpy new            =    -150.5064780620 Ry

     CASE: enthalpy_new < enthalpy_old

     new trust radius        =       0.0057933172 bohr
     new conv_thr            =       0.0000000100 Ry

     new unit-cell volume =    322.44101 a.u.^3 (    47.78083 Ang^3 )

CELL_PARAMETERS (alat=  6.86950000)
   0.961019418   0.000000000   0.000000000
  -0.480509709   0.832267229   0.000000000
  -0.000000000  -0.000000000   1.243597764

ATOMIC_POSITIONS (crystal)
Ca       0.333333333   0.666666667   0.250000000
Ca       0.666666667   0.333333333   0.750000000
H        0.333333333   0.666666667   0.750000000
H        0.666666667   0.333333333   0.250000000
H       -0.000000000   0.000000000   0.000000000
H        0.000000000   0.000000000   0.500000000



     Writing output data file CaH2_ambient.save
     NEW-OLD atomic charge density approx. for the potential
     NEW k-points:
        k(    1) = (   0.0867135   0.1501921   0.0670099), wk =   0.0370370
        k(    2) = (   0.0867135   0.1501921   0.2010296), wk =   0.0370370
        k(    3) = (   0.0867135   0.1501921   0.3350494), wk =   0.0370370
        k(    4) = (   0.0867135   0.3504483   0.0670099), wk =   0.0740741
        k(    5) = (   0.0867135   0.3504483   0.2010296), wk =   0.0740741
        k(    6) = (   0.0867135   0.3504483   0.3350494), wk =   0.0740741
        k(    7) = (   0.0867135   0.5507045   0.0670099), wk =   0.0740741
        k(    8) = (   0.0867135   0.5507045   0.2010296), wk =   0.0740741
        k(    9) = (   0.0867135   0.5507045   0.3350494), wk =   0.0740741
        k(   10) = (   0.0867135  -0.4505764   0.0670099), wk =   0.0740741
        k(   11) = (   0.0867135  -0.4505764   0.2010296), wk =   0.0740741
        k(   12) = (   0.0867135  -0.4505764   0.3350494), wk =   0.0740741
        k(   13) = (   0.0867135  -0.2503202   0.0670099), wk =   0.0740741
        k(   14) = (   0.0867135  -0.2503202   0.2010296), wk =   0.0740741
        k(   15) = (   0.0867135  -0.2503202   0.3350494), wk =   0.0740741
        k(   16) = (   0.0867135  -0.0500640   0.0670099), wk =   0.0370370
        k(   17) = (   0.0867135  -0.0500640   0.2010296), wk =   0.0370370
        k(   18) = (   0.0867135  -0.0500640   0.3350494), wk =   0.0370370
        k(   19) = (   0.2601404   0.4505764   0.0670099), wk =   0.0370370
        k(   20) = (   0.2601404   0.4505764   0.2010296), wk =   0.0370370
        k(   21) = (   0.2601404   0.4505764   0.3350494), wk =   0.0370370
        k(   22) = (   0.2601404   0.6508326   0.0670099), wk =   0.0740741
        k(   23) = (   0.2601404   0.6508326   0.2010296), wk =   0.0740741
        k(   24) = (   0.2601404   0.6508326   0.3350494), wk =   0.0740741
        k(   25) = (   0.2601404  -0.3504483   0.0670099), wk =   0.0740741
        k(   26) = (   0.2601404  -0.3504483   0.2010296), wk =   0.0740741
        k(   27) = (   0.2601404  -0.3504483   0.3350494), wk =   0.0740741
        k(   28) = (   0.2601404  -0.1501921   0.0670099), wk =   0.0370370
        k(   29) = (   0.2601404  -0.1501921   0.2010296), wk =   0.0370370
        k(   30) = (   0.2601404  -0.1501921   0.3350494), wk =   0.0370370
        k(   31) = (   0.4335674   0.7509607   0.0670099), wk =   0.0370370
        k(   32) = (   0.4335674   0.7509607   0.2010296), wk =   0.0370370
        k(   33) = (   0.4335674   0.7509607   0.3350494), wk =   0.0370370
        k(   34) = (   0.4335674  -0.2503202   0.0670099), wk =   0.0370370
        k(   35) = (   0.4335674  -0.2503202   0.2010296), wk =   0.0370370
        k(   36) = (   0.4335674  -0.2503202   0.3350494), wk =   0.0370370
     extrapolated charge   24.00075, renormalised to   24.00000

     total cpu time spent up to now is      843.9 secs

     per-process dynamical memory:    23.0 Mb

     Self-consistent Calculation

     iteration #  1     ecut=    80.00 Ry     beta=0.30
     Davidson diagonalization with overlap
     ethr =  1.00E-06,  avg # of iterations =  2.0

     Threshold (ethr) on eigenvalues was too large:
     Diagonalizing with lowered threshold

     Davidson diagonalization with overlap
     ethr =  1.26E-09,  avg # of iterations =  3.3

     total cpu time spent up to now is      867.2 secs

     total energy              =    -151.38325269 Ry
     Harris-Foulkes estimate   =    -151.38257070 Ry
     estimated scf accuracy    <       0.00000032 Ry

     iteration #  2     ecut=    80.00 Ry     beta=0.30
     Davidson diagonalization with overlap
     ethr =  1.34E-09,  avg # of iterations =  1.8

     total cpu time spent up to now is      875.9 secs

     total energy              =    -151.38325274 Ry
     Harris-Foulkes estimate   =    -151.38325271 Ry
     estimated scf accuracy    <       0.00000018 Ry

     iteration #  3     ecut=    80.00 Ry     beta=0.30
     Davidson diagonalization with overlap
     ethr =  7.56E-10,  avg # of iterations =  1.0

     total cpu time spent up to now is      884.3 secs

     total energy              =    -151.38325275 Ry
[...]

     crystal axes: (cart. coord. in units of alat)
               a(1) = (   0.961019   0.000000   0.000000 )  
               a(2) = (  -0.480510   0.832267   0.000000 )  
               a(3) = (  -0.000000  -0.000000   1.243598 )  

     reciprocal axes: (cart. coord. in units 2 pi/alat)
               b(1) = (  1.040562  0.600769  0.000000 )  
               b(2) = ( -0.000000  1.201537  0.000000 )  
               b(3) = ( -0.000000 -0.000000  0.804119 )  


     PseudoPot. # 1 for H  read from file:
     /home/ilia/espresso/pseudo/H.pbe-sp-mt.ncpp
     MD5 check sum: 7a641936b52ccecd26bd1ad87cca5aed
     Pseudo is Norm-conserving, Zval =  1.0
     Generated by old ld1 code (numerical format)
     Using radial grid of 1076 points,  0 beta functions with: 

     PseudoPot. # 2 for Ca read from file:
     /home/ilia/espresso/pseudo/Ca.pbe-sp-mt_ion2.ncpp
     MD5 check sum: 4bcd670d05521f7b178fdf0a334578ab
     Pseudo is Norm-conserving, Zval = 10.0
     Generated by old ld1 code (numerical format)
     Using radial grid of 1153 points,  1 beta functions with: 
                l(1) =   1

     atomic species   valence    mass     pseudopotential
        H              1.00     1.00700     H ( 1.00)
        Ca            10.00    40.07800     Ca( 1.00)

     24 Sym. Ops., with inversion, found (12 have fractional translation)



   Cartesian axes

     site n.     atom                  positions (alat units)
         1           Ca  tau(   1) = (  -0.0000000   0.5548448   0.3108994  )
         2           Ca  tau(   2) = (   0.4805097   0.2774224   0.9326983  )
         3           H   tau(   3) = (  -0.0000000   0.5548448   0.9326983  )
         4           H   tau(   4) = (   0.4805097   0.2774224   0.3108994  )
         5           H   tau(   5) = (  -0.0000000   0.0000000   0.0000000  )
         6           H   tau(   6) = (   0.0000000  -0.0000000   0.6217989  )

     number of k points=    36
                       cart. coord. in units 2pi/alat
        k(    1) = (   0.0867135   0.1501921   0.0670099), wk =   0.0370370
        k(    2) = (   0.0867135   0.1501921   0.2010296), wk =   0.0370370
        k(    3) = (   0.0867135   0.1501921   0.3350494), wk =   0.0370370
        k(    4) = (   0.0867135   0.3504483   0.0670099), wk =   0.0740741
        k(    5) = (   0.0867135   0.3504483   0.2010296), wk =   0.0740741
        k(    6) = (   0.0867135   0.3504483   0.3350494), wk =   0.0740741
        k(    7) = (   0.0867135   0.5507045   0.0670099), wk =   0.0740741
        k(    8) = (   0.0867135   0.5507045   0.2010296), wk =   0.0740741
        k(    9) = (   0.0867135   0.5507045   0.3350494), wk =   0.0740741
        k(   10) = (   0.0867135  -0.4505764   0.0670099), wk =   0.0740741
        k(   11) = (   0.0867135  -0.4505764   0.2010296), wk =   0.0740741
        k(   12) = (   0.0867135  -0.4505764   0.3350494), wk =   0.0740741
        k(   13) = (   0.0867135  -0.2503202   0.0670099), wk =   0.0740741
        k(   14) = (   0.0867135  -0.2503202   0.2010296), wk =   0.0740741
        k(   15) = (   0.0867135  -0.2503202   0.3350494), wk =   0.0740741
        k(   16) = (   0.0867135  -0.0500640   0.0670099), wk =   0.0370370
        k(   17) = (   0.0867135  -0.0500640   0.2010296), wk =   0.0370370
        k(   18) = (   0.0867135  -0.0500640   0.3350494), wk =   0.0370370
        k(   19) = (   0.2601404   0.4505764   0.0670099), wk =   0.0370370
        k(   20) = (   0.2601404   0.4505764   0.2010296), wk =   0.0370370
        k(   21) = (   0.2601404   0.4505764   0.3350494), wk =   0.0370370
        k(   22) = (   0.2601404   0.6508326   0.0670099), wk =   0.0740741
        k(   23) = (   0.2601404   0.6508326   0.2010296), wk =   0.0740741
        k(   24) = (   0.2601404   0.6508326   0.3350494), wk =   0.0740741
        k(   25) = (   0.2601404  -0.3504483   0.0670099), wk =   0.0740741
        k(   26) = (   0.2601404  -0.3504483   0.2010296), wk =   0.0740741
        k(   27) = (   0.2601404  -0.3504483   0.3350494), wk =   0.0740741
        k(   28) = (   0.2601404  -0.1501921   0.0670099), wk =   0.0370370
        k(   29) = (   0.2601404  -0.1501921   0.2010296), wk =   0.0370370
        k(   30) = (   0.2601404  -0.1501921   0.3350494), wk =   0.0370370
        k(   31) = (   0.4335674   0.7509607   0.0670099), wk =   0.0370370
        k(   32) = (   0.4335674   0.7509607   0.2010296), wk =   0.0370370
        k(   33) = (   0.4335674   0.7509607   0.3350494), wk =   0.0370370
        k(   34) = (   0.4335674  -0.2503202   0.0670099), wk =   0.0370370
        k(   35) = (   0.4335674  -0.2503202   0.2010296), wk =   0.0370370
        k(   36) = (   0.4335674  -0.2503202   0.3350494), wk =   0.0370370

     Dense  grid:    31231 G-vectors     FFT dimensions: (  40,  40,  50)

     Largest allocated arrays     est. size (Mb)     dimensions
        Kohn-Sham Wavefunctions         0.72 Mb     (   3921,   12)
        NL pseudopotentials             0.36 Mb     (   3921,    6)
        Each V/rho on FFT grid          1.22 Mb     (  80000)
        Each G-vector array             0.24 Mb     (  31231)
        G-vector shells                 0.01 Mb     (   1478)
     Largest temporary arrays     est. size (Mb)     dimensions
        Auxiliary wavefunctions         2.87 Mb     (   3921,   48)
        Each subspace H/S matrix        0.04 Mb     (  48,  48)
        Each <psi_i|beta_j> matrix      0.00 Mb     (      6,   12)
        Arrays for rho mixing          19.53 Mb     (  80000,  16)

     Initial potential from superposition of free atoms

     starting charge   19.99996, renormalised to   24.00000
     Starting wfc are   12 randomized atomic wfcs

     Writing output data file CaH2_ambient.save

     total cpu time spent up to now is      944.1 secs

     per-process dynamical memory:    20.1 Mb

     Self-consistent Calculation

     iteration #  1     ecut=    80.00 Ry     beta=0.30
     Davidson diagonalization with overlap
     ethr =  1.00E-06,  avg # of iterations =  5.0

     total cpu time spent up to now is      966.3 secs

     total energy              =    -152.90944345 Ry
     Harris-Foulkes estimate   =    -154.03769896 Ry
     estimated scf accuracy    <       5.44412719 Ry

     iteration #  2     ecut=    80.00 Ry     beta=0.30
     Davidson diagonalization with overlap
     ethr =  1.00E-02,  avg # of iterations =  1.0

     total cpu time spent up to now is      974.2 secs

     total energy              =    -150.75903264 Ry
     Harris-Foulkes estimate   =    -152.97180749 Ry
     estimated scf accuracy    <       3.22733011 Ry

     iteration #  3     ecut=    80.00 Ry     beta=0.30
     Davidson diagonalization with overlap
     ethr =  1.00E-02,  avg # of iterations =  2.0

     total cpu time spent up to now is      985.5 secs

     total energy              =    -151.36865029 Ry
     Harris-Foulkes estimate   =    -151.37073668 Ry
     estimated scf accuracy    <       0.09850108 Ry

     iteration #  4     ecut=    80.00 Ry     beta=0.30
     Davidson diagonalization with overlap
     ethr =  4.10E-04,  avg # of iterations =  1.2

     total cpu time spent up to now is      993.5 secs

     total energy              =    -151.37427290 Ry
     Harris-Foulkes estimate   =    -151.37065606 Ry
     estimated scf accuracy    <       0.06155152 Ry

     iteration #  5     ecut=    80.00 Ry     beta=0.30
     Davidson diagonalization with overlap
     ethr =  2.56E-04,  avg # of iterations =  2.0

     total cpu time spent up to now is     1002.3 secs

     total energy              =    -151.37869825 Ry
     Harris-Foulkes estimate   =    -151.37874732 Ry
     estimated scf accuracy    <       0.00147709 Ry

     iteration #  6     ecut=    80.00 Ry     beta=0.30
     Davidson diagonalization with overlap
     ethr =  6.15E-06,  avg # of iterations =  2.1

     total cpu time spent up to now is     1010.9 secs

     total energy              =    -151.37891475 Ry
     Harris-Foulkes estimate   =    -151.37879811 Ry
     estimated scf accuracy    <       0.00075135 Ry

     iteration #  7     ecut=    80.00 Ry     beta=0.30
     Davidson diagonalization with overlap
     ethr =  3.13E-06,  avg # of iterations =  2.0

     total cpu time spent up to now is     1019.7 secs

     total energy              =    -151.37884577 Ry
     Harris-Foulkes estimate   =    -151.37895926 Ry
     estimated scf accuracy    <       0.00017161 Ry

     iteration #  8     ecut=    80.00 Ry     beta=0.30
     Davidson diagonalization with overlap
     ethr =  7.15E-07,  avg # of iterations =  2.0

     total cpu time spent up to now is     1030.6 secs

     total energy              =    -151.37887489 Ry
     Harris-Foulkes estimate   =    -151.37887319 Ry
     estimated scf accuracy    <       0.00000257 Ry

     iteration #  9     ecut=    80.00 Ry     beta=0.30
     Davidson diagonalization with overlap
     ethr =  1.07E-08,  avg # of iterations =  3.0

     total cpu time spent up to now is     1042.5 secs

     total energy              =    -151.37887274 Ry
     Harris-Foulkes estimate   =    -151.37887780 Ry
     estimated scf accuracy    <       0.00000987 Ry

     iteration # 10     ecut=    80.00 Ry     beta=0.30
     Davidson diagonalization with overlap
     ethr =  1.07E-08,  avg # of iterations =  2.1

     total cpu time spent up to now is     1053.8 secs

     total energy              =    -151.37887425 Ry
     Harris-Foulkes estimate   =    -151.37887425 Ry
     estimated scf accuracy    <       0.00000005 Ry

     iteration # 11     ecut=    80.00 Ry     beta=0.30
     Davidson diagonalization with overlap
     ethr =  1.98E-10,  avg # of iterations =  2.0

     total cpu time spent up to now is     1062.8 secs

     total energy              =    -151.37887425 Ry
     Harris-Foulkes estimate   =    -151.37887426 Ry
     estimated scf accuracy    <       0.00000004 Ry

     iteration # 12     ecut=    80.00 Ry     beta=0.30
     Davidson diagonalization with overlap
     ethr =  1.56E-10,  avg # of iterations =  2.0

     total cpu time spent up to now is     1072.1 secs

     End of self-consistent calculation

          k = 0.0867 0.1502 0.0670 (  3911 PWs)   bands (ev):

   -29.8886 -29.5959 -11.9595 -11.2778 -11.2557 -11.0374 -10.9151 -10.8682
     2.7455   6.0460   8.8640   9.7646

          k = 0.0867 0.1502 0.2010 (  3904 PWs)   bands (ev):

   -29.8500 -29.6353 -11.8709 -11.2441 -11.2071 -11.1826 -10.9605 -10.8891
     3.1878   5.6706   9.0021   9.8833

          k = 0.0867 0.1502 0.3350 (  3905 PWs)   bands (ev):

   -29.7827 -29.7039 -11.6982 -11.4657 -11.1271 -11.0923 -11.0385 -10.9728
     3.9656   4.8870   9.4605   9.8613

          k = 0.0867 0.3504 0.0670 (  3888 PWs)   bands (ev):

   -29.8204 -29.6147 -11.8052 -11.4791 -11.3584 -11.2377 -10.9824 -10.9216
     3.9730   6.5300   7.8980   8.4700

          k = 0.0867 0.3504 0.2010 (  3901 PWs)   bands (ev):

   -29.7934 -29.6424 -11.8669 -11.5257 -11.2916 -11.2366 -10.9834 -10.9005
     4.3405   6.3890   8.0652   8.2542

          k = 0.0867 0.3504 0.3350 (  3905 PWs)   bands (ev):

   -29.7455 -29.6903 -11.8459 -11.7185 -11.2007 -11.0878 -11.0484 -10.9235
     4.9977   5.7867   8.2454   8.3228

          k = 0.0867 0.5507 0.0670 (  3892 PWs)   bands (ev):

   -29.7525 -29.6476 -11.7518 -11.5165 -11.4125 -11.3793 -11.1253 -10.9289
     5.5412   6.3241   6.8015   8.1938

          k = 0.0867 0.5507 0.2010 (  3883 PWs)   bands (ev):

   -29.7375 -29.6607 -11.9084 -11.6762 -11.3735 -11.2025 -11.0103 -10.9521
     5.8037   6.6006   6.9681   7.7207

          k = 0.0867 0.5507 0.3350 (  3897 PWs)   bands (ev):

   -29.7130 -29.6849 -11.9563 -11.8725 -11.2546 -11.1210 -11.0099 -10.9173
     6.2662   6.8071   7.0386   7.3122

          k = 0.0867-0.4506 0.0670 (  3888 PWs)   bands (ev):

   -29.7813 -29.6315 -11.7457 -11.5472 -11.3837 -11.3299 -11.0624 -10.9260
     4.7592   6.6815   7.1106   8.2918

          k = 0.0867-0.4506 0.2010 (  3890 PWs)   bands (ev):

   -29.7610 -29.6509 -11.8866 -11.6277 -11.3434 -11.2224 -10.9976 -10.9298
     5.0786   6.7409   7.3034   7.9146

          k = 0.0867-0.4506 0.3350 (  3894 PWs)   bands (ev):

   -29.7257 -29.6857 -11.9153 -11.8186 -11.2349 -11.1087 -11.0256 -10.9171
     5.6486   6.3275   7.5982   7.7713

          k = 0.0867-0.2503 0.0670 (  3901 PWs)   bands (ev):

   -29.8587 -29.6029 -11.8903 -11.3643 -11.3133 -11.1363 -10.9190 -10.9119
     3.2725   6.2867   8.6796   8.8051

          k = 0.0867-0.2503 0.2010 (  3909 PWs)   bands (ev):

   -29.8253 -29.6376 -11.8633 -11.3852 -11.2331 -11.2303 -10.9706 -10.8832
     3.6823   5.9981   8.6267   8.9645

          k = 0.0867-0.2503 0.3350 (  3911 PWs)   bands (ev):

   -29.7662 -29.6973 -11.7667 -11.5912 -11.1610 -11.0769 -11.0580 -10.9421
     4.4097   5.2792   8.8685   9.0637

          k = 0.0867-0.0501 0.0670 (  3920 PWs)   bands (ev):

   -29.9057 -29.5923 -11.9972 -11.2339 -11.2199 -10.9662 -10.9147 -10.8512
     2.4621   5.8989   8.9684  10.5150

          k = 0.0867-0.0501 0.2010 (  3921 PWs)   bands (ev):

   -29.8646 -29.6351 -11.8784 -11.1858 -11.1794 -11.1171 -10.9560 -10.9136
     2.9224   5.4856   9.2310  10.6017

          k = 0.0867-0.0501 0.3350 (  3886 PWs)   bands (ev):

   -29.7916 -29.7072 -11.6586 -11.3808 -11.1090 -11.0994 -11.0272 -11.0018
     3.7271   4.6739   9.8622  10.4608

          k = 0.2601 0.4506 0.0670 (  3898 PWs)   bands (ev):

   -29.7536 -29.6468 -11.6560 -11.6200 -11.3844 -11.3615 -11.1130 -10.9862
     5.2436   6.7297   6.8990   8.1989

          k = 0.2601 0.4506 0.2010 (  3890 PWs)   bands (ev):

   -29.7384 -29.6603 -11.8299 -11.6906 -11.4538 -11.1494 -11.0613 -10.9456
     5.5400   6.8965   7.1465   7.7869

          k = 0.2601 0.4506 0.3350 (  3894 PWs)   bands (ev):

   -29.7129 -29.6848 -11.8990 -11.8414 -11.3502 -11.2029 -10.9592 -10.8875
     6.0643   6.6725   7.4651   7.5779

          k = 0.2601 0.6508 0.0670 (  3892 PWs)   bands (ev):

   -29.7226 -29.6678 -11.6698 -11.5721 -11.4473 -11.3317 -11.1844 -11.0052
     5.8333   6.4879   6.7318   8.1350

          k = 0.2601 0.6508 0.2010 (  3887 PWs)   bands (ev):

   -29.7143 -29.6744 -11.8098 -11.7120 -11.5289 -11.1048 -11.0817 -10.9806
     6.0794   6.7776   6.9757   7.7333

          k = 0.2601 0.6508 0.3350 (  3893 PWs)   bands (ev):

   -29.7009 -29.6867 -11.9027 -11.8664 -11.4003 -11.2385 -10.9290 -10.8882
     6.5189   7.0393   7.1730   7.3216

          k = 0.2601-0.3504 0.0670 (  3890 PWs)   bands (ev):

   -29.7882 -29.6281 -11.7338 -11.5463 -11.4045 -11.2860 -11.0416 -10.9532
     4.5799   6.6694   7.3599   8.3198

          k = 0.2601-0.3504 0.2010 (  3894 PWs)   bands (ev):

   -29.7666 -29.6492 -11.8554 -11.6210 -11.3642 -11.2000 -11.0234 -10.9155
     4.9139   6.6796   7.5752   7.9723

          k = 0.2601-0.3504 0.3350 (  3895 PWs)   bands (ev):

   -29.7290 -29.6861 -11.8817 -11.7902 -11.2739 -11.1453 -11.0027 -10.8997
     5.5106   6.2206   7.8344   7.9079

          k = 0.2601-0.1502 0.0670 (  3897 PWs)   bands (ev):

   -29.8456 -29.6064 -11.8603 -11.4234 -11.3005 -11.1952 -10.9379 -10.9094
     3.5164   6.3800   8.4345   8.6067

          k = 0.2601-0.1502 0.2010 (  3903 PWs)   bands (ev):

   -29.8140 -29.6387 -11.8665 -11.4352 -11.2493 -11.2459 -10.9630 -10.8932
     3.9108   6.1387   8.4510   8.6343

          k = 0.2601-0.1502 0.3350 (  3906 PWs)   bands (ev):

   -29.7587 -29.6945 -11.8004 -11.6428 -11.1597 -11.0789 -11.0549 -10.9427
     4.6135   5.4559   8.6247   8.7617

          k = 0.4336 0.7510 0.0670 (  3877 PWs)   bands (ev):

   -29.7346 -29.6582 -11.7199 -11.5259 -11.4400 -11.3605 -11.1597 -10.9686
     5.8857   6.1923   6.8017   8.1553

          k = 0.4336 0.7510 0.2010 (  3881 PWs)   bands (ev):

   -29.7240 -29.6678 -11.8695 -11.6895 -11.4636 -11.1381 -11.0604 -10.9610
     6.1028   6.5165   7.0174   7.7089

          k = 0.4336 0.7510 0.3350 (  3898 PWs)   bands (ev):

   -29.7059 -29.6857 -11.9350 -11.8715 -11.3376 -11.1879 -10.9615 -10.8963
     6.5176   6.9590   7.0983   7.1804

          k = 0.4336-0.2503 0.0670 (  3895 PWs)   bands (ev):

   -29.7687 -29.6385 -11.7577 -11.5328 -11.3820 -11.3722 -11.0915 -10.9124
     5.0979   6.6244   6.8232   8.2441

          k = 0.4336-0.2503 0.2010 (  3886 PWs)   bands (ev):

   -29.7508 -29.6547 -11.9122 -11.6530 -11.3125 -11.2521 -10.9759 -10.9533
     5.3927   6.8404   6.9415   7.8069

          k = 0.4336-0.2503 0.3350 (  3892 PWs)   bands (ev):

   -29.7204 -29.6845 -11.9484 -11.8535 -11.2077 -11.0846 -11.0431 -10.9321
     5.9151   6.5348   7.2883   7.5405

!    total energy              =    -151.37887425 Ry
     Harris-Foulkes estimate   =    -151.37887425 Ry
     estimated scf accuracy    <          3.6E-09 Ry

     The total energy is the sum of the following terms:

     one-electron contribution =     -36.46187703 Ry
     hartree contribution      =      26.42146892 Ry
     xc contribution           =     -23.93543390 Ry
     ewald contribution        =    -117.40303225 Ry

     convergence has been achieved in  12 iterations

     Forces acting on atoms (Ry/au):

     atom    1 type  2   force =    -0.00000000   -0.00000000   -0.00000000
     atom    2 type  2   force =    -0.00000000    0.00000000    0.00000000
     atom    3 type  1   force =    -0.00000000    0.00000000    0.00000000
     atom    4 type  1   force =     0.00000000   -0.00000000    0.00000000
     atom    5 type  1   force =    -0.00000000   -0.00000000   -0.00000000
     atom    6 type  1   force =     0.00000000    0.00000000    0.00000000

     Total force =     0.000000     Total SCF correction =     0.000000


     entering subroutine stress ...

          total   stress  (Ry/bohr**3)                   (kbar)     P=  390.88
   0.00265959  -0.00000000  -0.00000000        391.24     -0.00     -0.00
  -0.00000000   0.00265959   0.00000000         -0.00    391.24      0.00
   0.00000000  -0.00000000   0.00265223          0.00     -0.00    390.16


     Writing output data file CaH2_ambient.save

     init_run     :     39.36s CPU     39.54s WALL (       2 calls)
     electrons    :    554.32s CPU    560.92s WALL (       7 calls)
     update_pot   :    204.90s CPU    206.44s WALL (       5 calls)
     forces       :     85.39s CPU     85.85s WALL (       7 calls)
     stress       :    182.82s CPU    183.40s WALL (       7 calls)

     Called by init_run:
     wfcinit      :      7.55s CPU      7.63s WALL (       2 calls)
     potinit      :     14.30s CPU     14.34s WALL (       2 calls)

     Called by electrons:
     c_bands      :    453.45s CPU    457.87s WALL (      53 calls)
     sum_band     :     86.74s CPU     88.29s WALL (      53 calls)
     v_of_rho     :      8.11s CPU      8.29s WALL (      58 calls)
     mix_rho      :      6.64s CPU      7.02s WALL (      53 calls)

     Called by c_bands:
     init_us_2    :     12.44s CPU     13.45s WALL (    4392 calls)
     cegterg      :    446.91s CPU    449.27s WALL (    1908 calls)

     Called by *egterg:
     h_psi        :    369.90s CPU    371.59s WALL (    5885 calls)
     g_psi        :      2.57s CPU      2.64s WALL (    3905 calls)
     cdiaghg      :      2.73s CPU      2.77s WALL (    5561 calls)

     Called by h_psi:
     add_vuspsi   :      5.33s CPU      5.38s WALL (    5885 calls)

     General routines
     calbec       :      5.85s CPU      5.86s WALL (    6389 calls)
     fft          :      2.40s CPU      2.38s WALL (     696 calls)
     ffts         :      2.87s CPU      2.89s WALL (     852 calls)
     fftw         :    350.25s CPU    351.85s WALL (  147056 calls)
     davcio       :      1.50s CPU      3.62s WALL (    6300 calls)


     PWSCF        : 17m47.69s CPU    17m57.10s WALL


   This run was terminated on:  16: 0:40   3Jun2014            

=------------------------------------------------------------------------------=
   JOB DONE.
=------------------------------------------------------------------------------=
