
     Program PWSCF v.5.0.2 (svn rev. 9392) starts on  3Jun2014 at 14:43:33 

     This program is part of the open-source Quantum ESPRESSO suite
     for quantum simulation of materials; please cite
         "P. Giannozzi et al., J. Phys.:Condens. Matter 21 395502 (2009);
          URL http://www.quantum-espresso.org", 
     in publications or presentations arising from this work. More details at
     http://www.quantum-espresso.org/quote.php

     Serial version

     Current dimensions of program PWSCF are:
     Max number of different atomic species (ntypx) = 10
     Max number of k-points (npk) =  40000
     Max angular momentum in pseudopotentials (lmaxx) =  3
     Waiting for input...
     Reading input from standard input

     G-vector sticks info
     --------------------
     sticks:   dense  smooth     PW     G-vecs:    dense   smooth      PW
     Sum        1039    1039    313                35601    35601    5799



     bravais-lattice index     =            4
     lattice parameter (alat)  =       6.8695  a.u.
     unit-cell volume          =     367.8832 (a.u.)^3
     number of atoms/cell      =            6
     number of atomic types    =            2
     number of electrons       =        24.00
     number of Kohn-Sham states=           12
     kinetic-energy cutoff     =      80.0000  Ry
     charge density cutoff     =     320.0000  Ry
     convergence threshold     =      1.0E-06
     mixing beta               =       0.3000
     number of iterations used =           16  local-TF  mixing
     Exchange-correlation      = PBE ( 1 4 3 4 0)
     EXX-fraction              =        0.00
     nstep                     =           50


     celldm(1)=   6.869500  celldm(2)=   0.000000  celldm(3)=   1.310400
     celldm(4)=   0.000000  celldm(5)=   0.000000  celldm(6)=   0.000000

     crystal axes: (cart. coord. in units of alat)
               a(1) = (   1.000000   0.000000   0.000000 )  
               a(2) = (  -0.500000   0.866025   0.000000 )  
               a(3) = (   0.000000   0.000000   1.310400 )  

     reciprocal axes: (cart. coord. in units 2 pi/alat)
               b(1) = (  1.000000  0.577350 -0.000000 )  
               b(2) = (  0.000000  1.154701  0.000000 )  
               b(3) = (  0.000000 -0.000000  0.763126 )  


     PseudoPot. # 1 for H  read from file:
     /home/ilia/espresso/pseudo/H.pbe-sp-mt.ncpp
     MD5 check sum: 7a641936b52ccecd26bd1ad87cca5aed
     Pseudo is Norm-conserving, Zval =  1.0
     Generated by old ld1 code (numerical format)
     Using radial grid of 1076 points,  0 beta functions with: 

     PseudoPot. # 2 for Ca read from file:
     /home/ilia/espresso/pseudo/Ca.pbe-sp-mt_ion2.ncpp
     MD5 check sum: 4bcd670d05521f7b178fdf0a334578ab
     Pseudo is Norm-conserving, Zval = 10.0
     Generated by old ld1 code (numerical format)
     Using radial grid of 1153 points,  1 beta functions with: 
                l(1) =   1

     atomic species   valence    mass     pseudopotential
        H              1.00     1.00700     H ( 1.00)
        Ca            10.00    40.07800     Ca( 1.00)

     24 Sym. Ops., with inversion, found (12 have fractional translation)



   Cartesian axes

     site n.     atom                  positions (alat units)
         1           Ca  tau(   1) = (   0.0000000   0.5773503   0.3276000  )
         2           Ca  tau(   2) = (   0.5000000   0.2886751   0.9828000  )
         3           H   tau(   3) = (   0.0000000   0.5773503   0.9828000  )
         4           H   tau(   4) = (   0.5000000   0.2886751   0.3276000  )
         5           H   tau(   5) = (   0.0000000   0.0000000   0.0000000  )
         6           H   tau(   6) = (   0.0000000   0.0000000   0.6552000  )

     number of k points=    36
                       cart. coord. in units 2pi/alat
        k(    1) = (   0.0833333   0.1443376   0.0635938), wk =   0.0370370
        k(    2) = (   0.0833333   0.1443376   0.1907814), wk =   0.0370370
        k(    3) = (   0.0833333   0.1443376   0.3179691), wk =   0.0370370
        k(    4) = (   0.0833333   0.3367877   0.0635938), wk =   0.0740741
        k(    5) = (   0.0833333   0.3367877   0.1907814), wk =   0.0740741
        k(    6) = (   0.0833333   0.3367877   0.3179691), wk =   0.0740741
        k(    7) = (   0.0833333   0.5292377   0.0635938), wk =   0.0740741
        k(    8) = (   0.0833333   0.5292377   0.1907814), wk =   0.0740741
        k(    9) = (   0.0833333   0.5292377   0.3179691), wk =   0.0740741
        k(   10) = (   0.0833333  -0.4330127   0.0635938), wk =   0.0740741
        k(   11) = (   0.0833333  -0.4330127   0.1907814), wk =   0.0740741
        k(   12) = (   0.0833333  -0.4330127   0.3179691), wk =   0.0740741
        k(   13) = (   0.0833333  -0.2405626   0.0635938), wk =   0.0740741
        k(   14) = (   0.0833333  -0.2405626   0.1907814), wk =   0.0740741
        k(   15) = (   0.0833333  -0.2405626   0.3179691), wk =   0.0740741
        k(   16) = (   0.0833333  -0.0481125   0.0635938), wk =   0.0370370
        k(   17) = (   0.0833333  -0.0481125   0.1907814), wk =   0.0370370
        k(   18) = (   0.0833333  -0.0481125   0.3179691), wk =   0.0370370
        k(   19) = (   0.2500000   0.4330127   0.0635938), wk =   0.0370370
        k(   20) = (   0.2500000   0.4330127   0.1907814), wk =   0.0370370
        k(   21) = (   0.2500000   0.4330127   0.3179691), wk =   0.0370370
        k(   22) = (   0.2500000   0.6254628   0.0635938), wk =   0.0740741
        k(   23) = (   0.2500000   0.6254628   0.1907814), wk =   0.0740741
        k(   24) = (   0.2500000   0.6254628   0.3179691), wk =   0.0740741
        k(   25) = (   0.2500000  -0.3367877   0.0635938), wk =   0.0740741
        k(   26) = (   0.2500000  -0.3367877   0.1907814), wk =   0.0740741
        k(   27) = (   0.2500000  -0.3367877   0.3179691), wk =   0.0740741
        k(   28) = (   0.2500000  -0.1443376   0.0635938), wk =   0.0370370
        k(   29) = (   0.2500000  -0.1443376   0.1907814), wk =   0.0370370
        k(   30) = (   0.2500000  -0.1443376   0.3179691), wk =   0.0370370
        k(   31) = (   0.4166667   0.7216878   0.0635938), wk =   0.0370370
        k(   32) = (   0.4166667   0.7216878   0.1907814), wk =   0.0370370
        k(   33) = (   0.4166667   0.7216878   0.3179691), wk =   0.0370370
        k(   34) = (   0.4166667  -0.2405626   0.0635938), wk =   0.0370370
        k(   35) = (   0.4166667  -0.2405626   0.1907814), wk =   0.0370370
        k(   36) = (   0.4166667  -0.2405626   0.3179691), wk =   0.0370370

     Dense  grid:    35601 G-vectors     FFT dimensions: (  40,  40,  54)

     Largest allocated arrays     est. size (Mb)     dimensions
        Kohn-Sham Wavefunctions         0.82 Mb     (   4465,   12)
        NL pseudopotentials             0.41 Mb     (   4465,    6)
        Each V/rho on FFT grid          1.32 Mb     (  86400)
        Each G-vector array             0.27 Mb     (  35601)
        G-vector shells                 0.27 Mb     (  35601)
     Largest temporary arrays     est. size (Mb)     dimensions
        Auxiliary wavefunctions         3.27 Mb     (   4465,   48)
        Each subspace H/S matrix        0.04 Mb     (  48,  48)
        Each <psi_i|beta_j> matrix      0.00 Mb     (      6,   12)
        Arrays for rho mixing          21.09 Mb     (  86400,  16)

     Initial potential from superposition of free atoms

     starting charge   19.99996, renormalised to   24.00000
     Starting wfc are   12 randomized atomic wfcs

     total cpu time spent up to now is       31.9 secs

     per-process dynamical memory:    18.0 Mb

     Self-consistent Calculation

     iteration #  1     ecut=    80.00 Ry     beta=0.30
     Davidson diagonalization with overlap
     ethr =  1.00E-02,  avg # of iterations =  2.0

     total cpu time spent up to now is       42.7 secs

     total energy              =    -153.07279251 Ry
     Harris-Foulkes estimate   =    -154.21365382 Ry
     estimated scf accuracy    <       5.60363544 Ry

     iteration #  2     ecut=    80.00 Ry     beta=0.30
     Davidson diagonalization with overlap
     ethr =  1.00E-02,  avg # of iterations =  1.0

     total cpu time spent up to now is       50.4 secs

     total energy              =    -150.83698953 Ry
     Harris-Foulkes estimate   =    -153.13636637 Ry
     estimated scf accuracy    <       3.36085036 Ry

     iteration #  3     ecut=    80.00 Ry     beta=0.30
     Davidson diagonalization with overlap
     ethr =  1.00E-02,  avg # of iterations =  2.0

     total cpu time spent up to now is       61.7 secs

     total energy              =    -151.46406444 Ry
     Harris-Foulkes estimate   =    -151.46887677 Ry
     estimated scf accuracy    <       0.12171909 Ry

     iteration #  4     ecut=    80.00 Ry     beta=0.30
     Davidson diagonalization with overlap
     ethr =  5.07E-04,  avg # of iterations =  1.2

     total cpu time spent up to now is       69.6 secs

     total energy              =    -151.46762627 Ry
     Harris-Foulkes estimate   =    -151.46640676 Ry
     estimated scf accuracy    <       0.07585957 Ry

     iteration #  5     ecut=    80.00 Ry     beta=0.30
     Davidson diagonalization with overlap
     ethr =  3.16E-04,  avg # of iterations =  2.0

     total cpu time spent up to now is       78.3 secs

     total energy              =    -151.47348455 Ry
     Harris-Foulkes estimate   =    -151.47365066 Ry
     estimated scf accuracy    <       0.00214786 Ry

     iteration #  6     ecut=    80.00 Ry     beta=0.30
     Davidson diagonalization with overlap
     ethr =  8.95E-06,  avg # of iterations =  2.1

     total cpu time spent up to now is       86.6 secs

     total energy              =    -151.47376356 Ry
     Harris-Foulkes estimate   =    -151.47362701 Ry
     estimated scf accuracy    <       0.00104735 Ry

     iteration #  7     ecut=    80.00 Ry     beta=0.30
     Davidson diagonalization with overlap
     ethr =  4.36E-06,  avg # of iterations =  2.0

     total cpu time spent up to now is       95.4 secs

     total energy              =    -151.47368567 Ry
     Harris-Foulkes estimate   =    -151.47383291 Ry
     estimated scf accuracy    <       0.00022358 Ry

     iteration #  8     ecut=    80.00 Ry     beta=0.30
     Davidson diagonalization with overlap
     ethr =  9.32E-07,  avg # of iterations =  2.0

     total cpu time spent up to now is      106.1 secs

     total energy              =    -151.47372341 Ry
     Harris-Foulkes estimate   =    -151.47372142 Ry
     estimated scf accuracy    <       0.00000279 Ry

     iteration #  9     ecut=    80.00 Ry     beta=0.30
     Davidson diagonalization with overlap
     ethr =  1.16E-08,  avg # of iterations =  2.8

     total cpu time spent up to now is      117.6 secs

     total energy              =    -151.47372133 Ry
     Harris-Foulkes estimate   =    -151.47372645 Ry
     estimated scf accuracy    <       0.00001100 Ry

     iteration # 10     ecut=    80.00 Ry     beta=0.30
     Davidson diagonalization with overlap
     ethr =  1.16E-08,  avg # of iterations =  2.0

     total cpu time spent up to now is      128.5 secs

     End of self-consistent calculation

          k = 0.0833 0.1443 0.0636 (  4433 PWs)   bands (ev):

   -31.6045 -31.4301 -13.5095 -13.0075 -12.9923 -12.8512 -12.7664 -12.7627
     1.5643   4.8269   7.1756   8.3198

          k = 0.0833 0.1443 0.1908 (  4435 PWs)   bands (ev):

   -31.5814 -31.4538 -13.4435 -12.9928 -12.9630 -12.9500 -12.7964 -12.7655
     1.9481   4.3204   7.4758   8.4049

          k = 0.0833 0.1443 0.3180 (  4455 PWs)   bands (ev):

   -31.5420 -31.4949 -13.3182 -13.1536 -12.9074 -12.8905 -12.8481 -12.8153
     2.6401   3.5004   7.9861   8.3634

          k = 0.0833 0.3368 0.0636 (  4441 PWs)   bands (ev):

   -31.5650 -31.4417 -13.4003 -13.1382 -13.0610 -12.9855 -12.8393 -12.7724
     2.6554   5.2232   6.5935   6.9560

          k = 0.0833 0.3368 0.1908 (  4446 PWs)   bands (ev):

   -31.5484 -31.4583 -13.4281 -13.1786 -13.0200 -12.9899 -12.8135 -12.7780
     2.9870   4.9640   6.7066   6.8791

          k = 0.0833 0.3368 0.3180 (  4452 PWs)   bands (ev):

   -31.5199 -31.4870 -13.4051 -13.3136 -12.9564 -12.8852 -12.8679 -12.7914
     3.5876   4.3279   6.8707   6.9496

          k = 0.0833 0.5292 0.0636 (  4457 PWs)   bands (ev):

   -31.5247 -31.4619 -13.3327 -13.1869 -13.1071 -13.0767 -12.9331 -12.7780
     4.1438   4.8981   5.5777   6.7989

          k = 0.0833 0.5292 0.1908 (  4454 PWs)   bands (ev):

   -31.5162 -31.4696 -13.4411 -13.2842 -13.0737 -12.9747 -12.8396 -12.8066
     4.4001   5.1417   5.6477   6.3446

          k = 0.0833 0.5292 0.3180 (  4444 PWs)   bands (ev):

   -31.5010 -31.4837 -13.4726 -13.4157 -12.9923 -12.9044 -12.8501 -12.7901
     4.8552   5.3526   5.6060   5.9050

          k = 0.0833-0.4330 0.0636 (  4446 PWs)   bands (ev):

   -31.5420 -31.4517 -13.3473 -13.1918 -13.0806 -13.0476 -12.8923 -12.7758
     3.3855   5.3047   5.8606   6.8539

          k = 0.0833-0.4330 0.1908 (  4453 PWs)   bands (ev):

   -31.5300 -31.4636 -13.4326 -13.2490 -13.0540 -12.9852 -12.8262 -12.7959
     3.6822   5.2870   5.9805   6.5531

          k = 0.0833-0.4330 0.3180 (  4446 PWs)   bands (ev):

   -31.5089 -31.4838 -13.4474 -13.3795 -12.9792 -12.8966 -12.8585 -12.7891
     4.2158   4.8549   6.2109   6.4016

          k = 0.0833-0.2406 0.0636 (  4445 PWs)   bands (ev):

   -31.5873 -31.4349 -13.4613 -13.0632 -13.0299 -12.9170 -12.7930 -12.7690
     2.0265   5.0258   7.0726   7.4478

          k = 0.0833-0.2406 0.1908 (  4435 PWs)   bands (ev):

   -31.5668 -31.4549 -13.4334 -13.0853 -12.9837 -12.9791 -12.8037 -12.7651
     2.3880   4.6095   7.1761   7.5724

          k = 0.0833-0.2406 0.3180 (  4447 PWs)   bands (ev):

   -31.5318 -31.4908 -13.3578 -13.2318 -12.9300 -12.8857 -12.8615 -12.8003
     3.0422   3.8556   7.4642   7.6438

          k = 0.0833-0.0481 0.0636 (  4430 PWs)   bands (ev):

   -31.6138 -31.4283 -13.5357 -12.9786 -12.9695 -12.8043 -12.7656 -12.7516
     1.3194   4.7053   7.2332   8.9760

          k = 0.0833-0.0481 0.1908 (  4422 PWs)   bands (ev):

   -31.5890 -31.4532 -13.4509 -12.9476 -12.9423 -12.9196 -12.7931 -12.7766
     1.7153   4.1596   7.6503   9.0287

          k = 0.0833-0.0481 0.3180 (  4450 PWs)   bands (ev):

   -31.5472 -31.4973 -13.2960 -13.1030 -12.8952 -12.8913 -12.8406 -12.8289
     2.4268   3.3101   8.3230   8.8787

          k = 0.2500 0.4330 0.0636 (  4434 PWs)   bands (ev):

   -31.5244 -31.4608 -13.2900 -13.2275 -13.0878 -13.0736 -12.9220 -12.8165
     3.8450   5.3470   5.5953   6.8153

          k = 0.2500 0.4330 0.1908 (  4442 PWs)   bands (ev):

   -31.5160 -31.4691 -13.3961 -13.2888 -13.1247 -12.9403 -12.8647 -12.8086
     4.1216   5.4218   5.7947   6.4454

          k = 0.2500 0.4330 0.3180 (  4447 PWs)   bands (ev):

   -31.5011 -31.4837 -13.4377 -13.3957 -13.0529 -12.9570 -12.8160 -12.7698
     4.6124   5.1692   6.0600   6.2077

          k = 0.2500 0.6255 0.0636 (  4440 PWs)   bands (ev):

   -31.5065 -31.4733 -13.2674 -13.2205 -13.1337 -13.0574 -12.9676 -12.8296
     4.4557   5.0850   5.3689   6.7890

          k = 0.2500 0.6255 0.1908 (  4450 PWs)   bands (ev):

   -31.5021 -31.4777 -13.3783 -13.3092 -13.1709 -12.9077 -12.8837 -12.8309
     4.6942   5.3140   5.5419   6.3924

          k = 0.2500 0.6255 0.3180 (  4441 PWs)   bands (ev):

   -31.4937 -31.4850 -13.4393 -13.4139 -13.0846 -12.9796 -12.7971 -12.7706
     5.1135   5.5112   5.7150   5.9273

          k = 0.2500-0.3368 0.0636 (  4442 PWs)   bands (ev):

   -31.5458 -31.4497 -13.3478 -13.1808 -13.0954 -13.0204 -12.8769 -12.7939
     3.2127   5.3231   6.0724   6.8735

          k = 0.2500-0.3368 0.1908 (  4438 PWs)   bands (ev):

   -31.5328 -31.4620 -13.4163 -13.2412 -13.0671 -12.9709 -12.8397 -12.7883
     3.5190   5.2262   6.2416   6.6144

          k = 0.2500-0.3368 0.3180 (  4444 PWs)   bands (ev):

   -31.5104 -31.4843 -13.4272 -13.3609 -13.0041 -12.9203 -12.8425 -12.7769
     4.0708   4.7353   6.4572   6.5484

          k = 0.2500-0.1443 0.0636 (  4444 PWs)   bands (ev):

   -31.5794 -31.4371 -13.4400 -13.1016 -13.0224 -12.9553 -12.8104 -12.7637
     2.2441   5.1034   7.0159   7.1184

          k = 0.2500-0.1443 0.1908 (  4445 PWs)   bands (ev):

   -31.5605 -31.4561 -13.4325 -13.1194 -12.9958 -12.9882 -12.7989 -12.7733
     2.5950   4.7372   7.0268   7.2631

          k = 0.2500-0.1443 0.3180 (  4452 PWs)   bands (ev):

   -31.5276 -31.4894 -13.3776 -13.2647 -12.9287 -12.8896 -12.8594 -12.8028
     3.2306   4.0198   7.2361   7.3628

          k = 0.4167 0.7217 0.0636 (  4450 PWs)   bands (ev):

   -31.5146 -31.4680 -13.3066 -13.1902 -13.1266 -13.0713 -12.9538 -12.8048
     4.5152   4.7488   5.5149   6.7895

          k = 0.4167 0.7217 0.1908 (  4439 PWs)   bands (ev):

   -31.5076 -31.4736 -13.4152 -13.2947 -13.1307 -12.9331 -12.8690 -12.8153
     4.7323   5.0253   5.6455   6.3483

          k = 0.4167 0.7217 0.3180 (  4442 PWs)   bands (ev):

   -31.4966 -31.4842 -13.4592 -13.4162 -13.0454 -12.9477 -12.8183 -12.7759
     5.1394   5.4029   5.7020   5.7605

          k = 0.4167-0.2406 0.0636 (  4457 PWs)   bands (ev):

   -31.5350 -31.4557 -13.3445 -13.1932 -13.0850 -13.0699 -12.9119 -12.7668
     3.7117   5.1722   5.6499   6.8232

          k = 0.4167-0.2406 0.1908 (  4465 PWs)   bands (ev):

   -31.5242 -31.4666 -13.4457 -13.2675 -13.0302 -13.0099 -12.8161 -12.8083
     3.9914   5.3303   5.6867   6.4354

          k = 0.4167-0.2406 0.3180 (  4445 PWs)   bands (ev):

   -31.5052 -31.4838 -13.4678 -13.4026 -12.9607 -12.8795 -12.8727 -12.8008
     4.4917   5.0801   5.8795   6.1533

!    total energy              =    -151.47372293 Ry
     Harris-Foulkes estimate   =    -151.47372295 Ry
     estimated scf accuracy    <       0.00000006 Ry

     The total energy is the sum of the following terms:

     one-electron contribution =     -43.98543225 Ry
     hartree contribution      =      28.58806407 Ry
     xc contribution           =     -23.69889745 Ry
     ewald contribution        =    -112.37745729 Ry

     convergence has been achieved in  10 iterations

     Forces acting on atoms (Ry/au):

     atom    1 type  2   force =     0.00000000   -0.00000000    0.00000000
     atom    2 type  2   force =     0.00000000    0.00000000    0.00000000
     atom    3 type  1   force =    -0.00000000    0.00000000    0.00000000
     atom    4 type  1   force =     0.00000000   -0.00000000   -0.00000000
     atom    5 type  1   force =    -0.00000000   -0.00000000   -0.00000000
     atom    6 type  1   force =     0.00000000    0.00000000   -0.00000000

     Total force =     0.000000     Total SCF correction =     0.000000


     entering subroutine stress ...

          total   stress  (Ry/bohr**3)                   (kbar)     P=  201.96
   0.00134506  -0.00000000   0.00000000        197.87     -0.00      0.00
  -0.00000000   0.00134506   0.00000000         -0.00    197.87      0.00
   0.00000000   0.00000000   0.00142857          0.00      0.00    210.15


     BFGS Geometry Optimization

     number of scf cycles    =   1
     number of bfgs steps    =   0

     enthalpy new            =    -151.4737229318 Ry

     new trust radius        =       0.1370021527 bohr
     new conv_thr            =       0.0000010000 Ry

     new unit-cell volume =    407.07761 a.u.^3 (    60.32268 Ang^3 )

CELL_PARAMETERS (alat=  6.86950000)
   1.033626572  -0.000000000   0.000000000
  -0.516813286   0.895146870   0.000000000
   0.000000000   0.000000000   1.357200052

ATOMIC_POSITIONS (crystal)
Ca       0.333333333   0.666666667   0.250000000
Ca       0.666666667   0.333333333   0.750000000
H        0.333333333   0.666666667   0.750000000
H        0.666666667   0.333333333   0.250000000
H       -0.000000000  -0.000000000  -0.000000000
H        0.000000000   0.000000000   0.500000000



     Writing output data file CaH2_ambient.save
     NEW-OLD atomic charge density approx. for the potential
     NEW k-points:
        k(    1) = (   0.0806223   0.1396419   0.0614009), wk =   0.0370370
        k(    2) = (   0.0806223   0.1396419   0.1842028), wk =   0.0370370
        k(    3) = (   0.0806223   0.1396419   0.3070046), wk =   0.0370370
        k(    4) = (   0.0806223   0.3258311   0.0614009), wk =   0.0740741
        k(    5) = (   0.0806223   0.3258311   0.1842028), wk =   0.0740741
        k(    6) = (   0.0806223   0.3258311   0.3070046), wk =   0.0740741
        k(    7) = (   0.0806223   0.5120203   0.0614009), wk =   0.0740741
        k(    8) = (   0.0806223   0.5120203   0.1842028), wk =   0.0740741
        k(    9) = (   0.0806223   0.5120203   0.3070046), wk =   0.0740741
        k(   10) = (   0.0806223  -0.4189257   0.0614009), wk =   0.0740741
        k(   11) = (   0.0806223  -0.4189257   0.1842028), wk =   0.0740741
        k(   12) = (   0.0806223  -0.4189257   0.3070046), wk =   0.0740741
        k(   13) = (   0.0806223  -0.2327365   0.0614009), wk =   0.0740741
        k(   14) = (   0.0806223  -0.2327365   0.1842028), wk =   0.0740741
        k(   15) = (   0.0806223  -0.2327365   0.3070046), wk =   0.0740741
        k(   16) = (   0.0806223  -0.0465473   0.0614009), wk =   0.0370370
        k(   17) = (   0.0806223  -0.0465473   0.1842028), wk =   0.0370370
        k(   18) = (   0.0806223  -0.0465473   0.3070046), wk =   0.0370370
        k(   19) = (   0.2418668   0.4189257   0.0614009), wk =   0.0370370
        k(   20) = (   0.2418668   0.4189257   0.1842028), wk =   0.0370370
        k(   21) = (   0.2418668   0.4189257   0.3070046), wk =   0.0370370
        k(   22) = (   0.2418668   0.6051149   0.0614009), wk =   0.0740741
        k(   23) = (   0.2418668   0.6051149   0.1842028), wk =   0.0740741
        k(   24) = (   0.2418668   0.6051149   0.3070046), wk =   0.0740741
        k(   25) = (   0.2418668  -0.3258311   0.0614009), wk =   0.0740741
        k(   26) = (   0.2418668  -0.3258311   0.1842028), wk =   0.0740741
        k(   27) = (   0.2418668  -0.3258311   0.3070046), wk =   0.0740741
        k(   28) = (   0.2418668  -0.1396419   0.0614009), wk =   0.0370370
        k(   29) = (   0.2418668  -0.1396419   0.1842028), wk =   0.0370370
        k(   30) = (   0.2418668  -0.1396419   0.3070046), wk =   0.0370370
        k(   31) = (   0.4031114   0.6982094   0.0614009), wk =   0.0370370
        k(   32) = (   0.4031114   0.6982094   0.1842028), wk =   0.0370370
        k(   33) = (   0.4031114   0.6982094   0.3070046), wk =   0.0370370
        k(   34) = (   0.4031114  -0.2327365   0.0614009), wk =   0.0370370
        k(   35) = (   0.4031114  -0.2327365   0.1842028), wk =   0.0370370
        k(   36) = (   0.4031114  -0.2327365   0.3070046), wk =   0.0370370
     extrapolated charge   25.92565, renormalised to   24.00000

     total cpu time spent up to now is      211.9 secs

     per-process dynamical memory:    23.0 Mb

     Self-consistent Calculation

     iteration #  1     ecut=    80.00 Ry     beta=0.30
     Davidson diagonalization with overlap
     ethr =  1.00E-06,  avg # of iterations =  5.0

     total cpu time spent up to now is      228.2 secs

     total energy              =    -151.36412016 Ry
     Harris-Foulkes estimate   =    -149.04291085 Ry
     estimated scf accuracy    <       0.17948236 Ry

     iteration #  2     ecut=    80.00 Ry     beta=0.30
     Davidson diagonalization with overlap
     ethr =  7.48E-04,  avg # of iterations =  2.0

     total cpu time spent up to now is      239.0 secs

     total energy              =    -151.51304938 Ry
     Harris-Foulkes estimate   =    -151.51370311 Ry
     estimated scf accuracy    <       0.00431597 Ry

     iteration #  3     ecut=    80.00 Ry     beta=0.30
     Davidson diagonalization with overlap
     ethr =  1.80E-05,  avg # of iterations =  1.3

     total cpu time spent up to now is      246.9 secs

     total energy              =    -151.51188055 Ry
     Harris-Foulkes estimate   =    -151.51320923 Ry
     estimated scf accuracy    <       0.00273443 Ry

     iteration #  4     ecut=    80.00 Ry     beta=0.30
     Davidson diagonalization with overlap
     ethr =  1.14E-05,  avg # of iterations =  2.0

     total cpu time spent up to now is      255.6 secs

     total energy              =    -151.51226873 Ry
     Harris-Foulkes estimate   =    -151.51228186 Ry
     estimated scf accuracy    <       0.00014125 Ry

     iteration #  5     ecut=    80.00 Ry     beta=0.30
     Davidson diagonalization with overlap
     ethr =  5.89E-07,  avg # of iterations =  1.9

     total cpu time spent up to now is      263.7 secs

     total energy              =    -151.51225579 Ry
     Harris-Foulkes estimate   =    -151.51227415 Ry
     estimated scf accuracy    <       0.00007102 Ry

     iteration #  6     ecut=    80.00 Ry     beta=0.30
     Davidson diagonalization with overlap
     ethr =  2.96E-07,  avg # of iterations =  2.0

     total cpu time spent up to now is      272.8 secs

     End of self-consistent calculation

          k = 0.0806 0.1396 0.0614 (  4433 PWs)   bands (ev):

   -32.8504 -32.7332 -14.6664 -14.2716 -14.2613 -14.1642 -14.1090 -14.0949
     0.8084   3.9859   6.0898   7.2834

          k = 0.0806 0.1396 0.1842 (  4435 PWs)   bands (ev):

   -32.8349 -32.7491 -14.6153 -14.2707 -14.2403 -14.2336 -14.1170 -14.1039
     1.1571   3.4255   6.4578   7.3558

          k = 0.0806 0.1396 0.3070 (  4455 PWs)   bands (ev):

   -32.8089 -32.7769 -14.5194 -14.3948 -14.1991 -14.1892 -14.1552 -14.1367
     1.7949   2.6086   6.9701   7.3163

          k = 0.0806 0.3258 0.0614 (  4441 PWs)   bands (ev):

   -32.8246 -32.7415 -14.5849 -14.3614 -14.3093 -14.2594 -14.1660 -14.0992
     1.8014   4.3182   5.6780   5.9690

          k = 0.0806 0.3258 0.1842 (  4446 PWs)   bands (ev):

   -32.8134 -32.7529 -14.5975 -14.4006 -14.2827 -14.2615 -14.1304 -14.1151
     2.1096   4.0118   5.7680   5.9485

          k = 0.0806 0.3258 0.3070 (  4452 PWs)   bands (ev):

   -32.7944 -32.7724 -14.5750 -14.5040 -14.2340 -14.1859 -14.1728 -14.1239
     2.6723   3.3763   5.9265   6.0086

          k = 0.0806 0.5120 0.0614 (  4457 PWs)   bands (ev):

   -32.7983 -32.7558 -14.5185 -14.4084 -14.3495 -14.3220 -14.2312 -14.1031
     3.2073   3.9275   4.7371   5.8833

          k = 0.0806 0.5120 0.1842 (  4454 PWs)   bands (ev):

   -32.7927 -32.7609 -14.5963 -14.4798 -14.3207 -14.2546 -14.1564 -14.1287
     3.4535   4.1412   4.7691   5.4423

          k = 0.0806 0.5120 0.3070 (  4444 PWs)   bands (ev):

   -32.7822 -32.7702 -14.6185 -14.5763 -14.2595 -14.1955 -14.1666 -14.1241
     3.8873   4.3048   4.7281   4.9927

          k = 0.0806-0.4189 0.0614 (  4446 PWs)   bands (ev):

   -32.8096 -32.7485 -14.5409 -14.4022 -14.3244 -14.3048 -14.2034 -14.1015
     2.4830   4.3484   5.0011   5.9117

          k = 0.0806-0.4189 0.1842 (  4453 PWs)   bands (ev):

   -32.8018 -32.7566 -14.5949 -14.4526 -14.3067 -14.2604 -14.1436 -14.1243
     2.7630   4.2987   5.0840   5.6444

          k = 0.0806-0.4189 0.3070 (  4446 PWs)   bands (ev):

   -32.7875 -32.7700 -14.6023 -14.5504 -14.2502 -14.1906 -14.1711 -14.1231
     3.2685   3.8750   5.2808   5.4795

          k = 0.0806-0.2327 0.0614 (  4445 PWs)   bands (ev):

   -32.8392 -32.7370 -14.6308 -14.3097 -14.2874 -14.2100 -14.1322 -14.0968
     1.2256   4.1553   6.0314   6.4824

          k = 0.0806-0.2327 0.1842 (  4435 PWs)   bands (ev):

   -32.8253 -32.7501 -14.6056 -14.3347 -14.2568 -14.2524 -14.1223 -14.1058
     1.5573   3.6873   6.2014   6.5920

          k = 0.0806-0.2327 0.3070 (  4447 PWs)   bands (ev):

   -32.8020 -32.7744 -14.5446 -14.4474 -14.2152 -14.1878 -14.1647 -14.1285
     2.1643   2.9355   6.4953   6.6562

          k = 0.0806-0.0465 0.0614 (  4430 PWs)   bands (ev):

   -32.8564 -32.7318 -14.6856 -14.2517 -14.2456 -14.1335 -14.0985 -14.0943
     0.5892   3.8819   6.1219   7.8692

          k = 0.0806-0.0465 0.1842 (  4422 PWs)   bands (ev):

   -32.8395 -32.7483 -14.6216 -14.2311 -14.2254 -14.2233 -14.1147 -14.1084
     0.9471   3.2811   6.6025   7.9111

          k = 0.0806-0.0465 0.3070 (  4450 PWs)   bands (ev):

   -32.8120 -32.7785 -14.5054 -14.3618 -14.1904 -14.1884 -14.1499 -14.1437
     1.6006   2.4349   7.2677   7.7747

          k = 0.2419 0.4189 0.0614 (  4434 PWs)   bands (ev):

   -32.7975 -32.7547 -14.4999 -14.4243 -14.3298 -14.3292 -14.2208 -14.1299
     2.9200   4.3946   4.6977   5.9023

          k = 0.2419 0.4189 0.1842 (  4442 PWs)   bands (ev):

   -32.7921 -32.7604 -14.5693 -14.4808 -14.3557 -14.2297 -14.1647 -14.1379
     3.1818   4.4256   4.8749   5.5499

          k = 0.2419 0.4189 0.3070 (  4447 PWs)   bands (ev):

   -32.7823 -32.7703 -14.5964 -14.5631 -14.3008 -14.2313 -14.1416 -14.1093
     3.6466   4.1680   5.1188   5.2898

          k = 0.2419 0.6051 0.0614 (  4440 PWs)   bands (ev):

   -32.7859 -32.7632 -14.4673 -14.4317 -14.3748 -14.3105 -14.2515 -14.1391
     3.5259   4.1288   4.4424   5.8977

          k = 0.2419 0.6051 0.1842 (  4450 PWs)   bands (ev):

   -32.7832 -32.7664 -14.5534 -14.5001 -14.3860 -14.2065 -14.1797 -14.1526
     3.7550   4.3224   4.5853   5.5027

          k = 0.2419 0.6051 0.3070 (  4441 PWs)   bands (ev):

   -32.7772 -32.7713 -14.5968 -14.5774 -14.3222 -14.2466 -14.1287 -14.1100
     4.1497   4.4722   4.7594   5.0231

          k = 0.2419-0.3258 0.0614 (  4442 PWs)   bands (ev):

   -32.8119 -32.7472 -14.5449 -14.3915 -14.3335 -14.2880 -14.1908 -14.1142
     2.3193   4.3922   5.1762   5.9245

          k = 0.2419-0.3258 0.1842 (  4438 PWs)   bands (ev):

   -32.8032 -32.7552 -14.5863 -14.4452 -14.3160 -14.2502 -14.1478 -14.1230
     2.6067   4.2504   5.3234   5.7023

          k = 0.2419-0.3258 0.3070 (  4444 PWs)   bands (ev):

   -32.7882 -32.7705 -14.5895 -14.5375 -14.2673 -14.2066 -14.1593 -14.1140
     3.1270   3.7585   5.5206   5.6246

          k = 0.2419-0.1396 0.0614 (  4444 PWs)   bands (ev):

   -32.8340 -32.7385 -14.6148 -14.3359 -14.2831 -14.2356 -14.1459 -14.0931
     1.4240   4.2207   5.9977   6.1718

          k = 0.2419-0.1396 0.1842 (  4445 PWs)   bands (ev):

   -32.8213 -32.7512 -14.6033 -14.3591 -14.2661 -14.2579 -14.1188 -14.1128
     1.7475   3.8044   6.0650   6.3065

          k = 0.2419-0.1396 0.3070 (  4452 PWs)   bands (ev):

   -32.7994 -32.7737 -14.5572 -14.4699 -14.2141 -14.1917 -14.1632 -14.1314
     2.3394   3.0886   6.2791   6.3952

          k = 0.4031 0.6982 0.0614 (  4450 PWs)   bands (ev):

   -32.7916 -32.7597 -14.4961 -14.4121 -14.3667 -14.3190 -14.2436 -14.1218
     3.5869   3.7746   4.6339   5.8888

          k = 0.4031 0.6982 0.1842 (  4439 PWs)   bands (ev):

   -32.7866 -32.7634 -14.5777 -14.4892 -14.3594 -14.2255 -14.1726 -14.1385
     3.7985   4.0200   4.7251   5.4531

          k = 0.4031 0.6982 0.3070 (  4442 PWs)   bands (ev):

   -32.7791 -32.7707 -14.6096 -14.5780 -14.2961 -14.2252 -14.1438 -14.1137
     4.1791   4.3438   4.7512   4.8936

          k = 0.4031-0.2327 0.0614 (  4457 PWs)   bands (ev):

   -32.8055 -32.7512 -14.5327 -14.4082 -14.3317 -14.3171 -14.2176 -14.0952
     2.7928   4.1880   4.8285   5.8928

          k = 0.4031-0.2327 0.1842 (  4465 PWs)   bands (ev):

   -32.7981 -32.7591 -14.6012 -14.4667 -14.2878 -14.2813 -14.1447 -14.1254
     3.0591   4.3088   4.8333   5.5294

          k = 0.4031-0.2327 0.3070 (  4445 PWs)   bands (ev):

   -32.7849 -32.7702 -14.6155 -14.5665 -14.2368 -14.1833 -14.1774 -14.1324
     3.5361   4.0865   4.9626   5.2343

!    total energy              =    -151.51226232 Ry
     Harris-Foulkes estimate   =    -151.51226230 Ry
     estimated scf accuracy    <       0.00000059 Ry

     The total energy is the sum of the following terms:

     one-electron contribution =     -49.58183804 Ry
     hartree contribution      =      30.25246855 Ry
     xc contribution           =     -23.53126554 Ry
     ewald contribution        =    -108.65162729 Ry

     convergence has been achieved in   6 iterations

     Forces acting on atoms (Ry/au):

     atom    1 type  2   force =    -0.00000000    0.00000000    0.00000000
     atom    2 type  2   force =     0.00000000   -0.00000000    0.00000000
     atom    3 type  1   force =     0.00000000    0.00000000   -0.00000000
     atom    4 type  1   force =     0.00000000   -0.00000000    0.00000000
     atom    5 type  1   force =     0.00000000    0.00000000    0.00000000
     atom    6 type  1   force =     0.00000000    0.00000000    0.00000000

     Total force =     0.000000     Total SCF correction =     0.000000


     entering subroutine stress ...

          total   stress  (Ry/bohr**3)                   (kbar)     P=   93.81
   0.00056970   0.00000000   0.00000000         83.81      0.00      0.00
   0.00000000   0.00056970   0.00000000          0.00     83.81      0.00
  -0.00000000   0.00000000   0.00077374         -0.00      0.00    113.82


     number of scf cycles    =   2
     number of bfgs steps    =   1

     enthalpy old            =    -151.4737229318 Ry
     enthalpy new            =    -151.5122623151 Ry

     CASE: enthalpy_new < enthalpy_old

     new trust radius        =       0.1625836016 bohr
     new conv_thr            =       0.0000000100 Ry

     new unit-cell volume =    449.17050 a.u.^3 (    66.56020 Ang^3 )

CELL_PARAMETERS (alat=  6.86950000)
   1.064518584   0.000000000  -0.000000000
  -0.532259292   0.921900137   0.000000000
   0.000000000   0.000000000   1.411883011

ATOMIC_POSITIONS (crystal)
Ca       0.333333333   0.666666667   0.250000000
Ca       0.666666667   0.333333333   0.750000000
H        0.333333333   0.666666667   0.750000000
H        0.666666667   0.333333333   0.250000000
H        0.000000000   0.000000000  -0.000000000
H        0.000000000   0.000000000   0.500000000



     Writing output data file CaH2_ambient.save
     NEW-OLD atomic charge density approx. for the potential
     NEW k-points:
        k(    1) = (   0.0782826   0.1355895   0.0590228), wk =   0.0370370
        k(    2) = (   0.0782826   0.1355895   0.1770685), wk =   0.0370370
        k(    3) = (   0.0782826   0.1355895   0.2951142), wk =   0.0370370
        k(    4) = (   0.0782826   0.3163756   0.0590228), wk =   0.0740741
        k(    5) = (   0.0782826   0.3163756   0.1770685), wk =   0.0740741
        k(    6) = (   0.0782826   0.3163756   0.2951142), wk =   0.0740741
        k(    7) = (   0.0782826   0.4971616   0.0590228), wk =   0.0740741
        k(    8) = (   0.0782826   0.4971616   0.1770685), wk =   0.0740741
        k(    9) = (   0.0782826   0.4971616   0.2951142), wk =   0.0740741
        k(   10) = (   0.0782826  -0.4067686   0.0590228), wk =   0.0740741
        k(   11) = (   0.0782826  -0.4067686   0.1770685), wk =   0.0740741
        k(   12) = (   0.0782826  -0.4067686   0.2951142), wk =   0.0740741
        k(   13) = (   0.0782826  -0.2259825   0.0590228), wk =   0.0740741
        k(   14) = (   0.0782826  -0.2259825   0.1770685), wk =   0.0740741
        k(   15) = (   0.0782826  -0.2259825   0.2951142), wk =   0.0740741
        k(   16) = (   0.0782826  -0.0451965   0.0590228), wk =   0.0370370
        k(   17) = (   0.0782826  -0.0451965   0.1770685), wk =   0.0370370
        k(   18) = (   0.0782826  -0.0451965   0.2951142), wk =   0.0370370
        k(   19) = (   0.2348479   0.4067686   0.0590228), wk =   0.0370370
        k(   20) = (   0.2348479   0.4067686   0.1770685), wk =   0.0370370
        k(   21) = (   0.2348479   0.4067686   0.2951142), wk =   0.0370370
        k(   22) = (   0.2348479   0.5875546   0.0590228), wk =   0.0740741
        k(   23) = (   0.2348479   0.5875546   0.1770685), wk =   0.0740741
        k(   24) = (   0.2348479   0.5875546   0.2951142), wk =   0.0740741
        k(   25) = (   0.2348479  -0.3163756   0.0590228), wk =   0.0740741
        k(   26) = (   0.2348479  -0.3163756   0.1770685), wk =   0.0740741
        k(   27) = (   0.2348479  -0.3163756   0.2951142), wk =   0.0740741
        k(   28) = (   0.2348479  -0.1355895   0.0590228), wk =   0.0370370
        k(   29) = (   0.2348479  -0.1355895   0.1770685), wk =   0.0370370
        k(   30) = (   0.2348479  -0.1355895   0.2951142), wk =   0.0370370
        k(   31) = (   0.3914132   0.6779476   0.0590228), wk =   0.0370370
        k(   32) = (   0.3914132   0.6779476   0.1770685), wk =   0.0370370
        k(   33) = (   0.3914132   0.6779476   0.2951142), wk =   0.0370370
        k(   34) = (   0.3914132  -0.2259825   0.0590228), wk =   0.0370370
        k(   35) = (   0.3914132  -0.2259825   0.1770685), wk =   0.0370370
        k(   36) = (   0.3914132  -0.2259825   0.2951142), wk =   0.0370370
     extrapolated charge   25.87425, renormalised to   24.00000

     total cpu time spent up to now is      357.0 secs

     per-process dynamical memory:    23.0 Mb

     Self-consistent Calculation

     iteration #  1     ecut=    80.00 Ry     beta=0.30
     Davidson diagonalization with overlap
     ethr =  1.00E-06,  avg # of iterations =  5.1

     total cpu time spent up to now is      374.8 secs

     total energy              =    -151.38403615 Ry
     Harris-Foulkes estimate   =    -148.85158162 Ry
     estimated scf accuracy    <       0.17554512 Ry

     iteration #  2     ecut=    80.00 Ry     beta=0.30
     Davidson diagonalization with overlap
     ethr =  7.31E-04,  avg # of iterations =  2.0

     total cpu time spent up to now is      386.0 secs

     total energy              =    -151.52947992 Ry
     Harris-Foulkes estimate   =    -151.53018902 Ry
     estimated scf accuracy    <       0.00456908 Ry

     iteration #  3     ecut=    80.00 Ry     beta=0.30
     Davidson diagonalization with overlap
     ethr =  1.90E-05,  avg # of iterations =  1.4

     total cpu time spent up to now is      394.0 secs

     total energy              =    -151.52817830 Ry
     Harris-Foulkes estimate   =    -151.52964325 Ry
     estimated scf accuracy    <       0.00292115 Ry

     iteration #  4     ecut=    80.00 Ry     beta=0.30
     Davidson diagonalization with overlap
     ethr =  1.22E-05,  avg # of iterations =  2.0

     total cpu time spent up to now is      403.0 secs

     total energy              =    -151.52859764 Ry
     Harris-Foulkes estimate   =    -151.52861571 Ry
     estimated scf accuracy    <       0.00017595 Ry

     iteration #  5     ecut=    80.00 Ry     beta=0.30
     Davidson diagonalization with overlap
     ethr =  7.33E-07,  avg # of iterations =  1.9

     total cpu time spent up to now is      411.3 secs

     total energy              =    -151.52857943 Ry
     Harris-Foulkes estimate   =    -151.52860425 Ry
     estimated scf accuracy    <       0.00008694 Ry

     iteration #  6     ecut=    80.00 Ry     beta=0.30
     Davidson diagonalization with overlap
     ethr =  3.62E-07,  avg # of iterations =  2.0

     total cpu time spent up to now is      420.8 secs

     total energy              =    -151.52858748 Ry
     Harris-Foulkes estimate   =    -151.52858748 Ry
     estimated scf accuracy    <       0.00000069 Ry

     iteration #  7     ecut=    80.00 Ry     beta=0.30
     Davidson diagonalization with overlap
     ethr =  2.89E-09,  avg # of iterations =  3.0

     total cpu time spent up to now is      433.0 secs

     total energy              =    -151.52858786 Ry
     Harris-Foulkes estimate   =    -151.52858782 Ry
     estimated scf accuracy    <       0.00000021 Ry

     iteration #  8     ecut=    80.00 Ry     beta=0.30
     Davidson diagonalization with overlap
     ethr =  8.62E-10,  avg # of iterations =  1.4

     total cpu time spent up to now is      440.9 secs

     total energy              =    -151.52858786 Ry
     Harris-Foulkes estimate   =    -151.52858787 Ry
     estimated scf accuracy    <       0.00000009 Ry

     iteration #  9     ecut=    80.00 Ry     beta=0.30
     Davidson diagonalization with overlap
     ethr =  3.61E-10,  avg # of iterations =  2.0

     total cpu time spent up to now is      450.8 secs

     End of self-consistent calculation

          k = 0.0783 0.1356 0.0590 (  4433 PWs)   bands (ev):

   -33.9946 -33.9174 -15.7463 -15.4294 -15.4219 -15.3712 -15.3233 -15.3031
     0.1767   3.2353   5.0963   6.3793

          k = 0.0783 0.1356 0.1771 (  4435 PWs)   bands (ev):

   -33.9844 -33.9279 -15.7069 -15.4471 -15.4083 -15.4039 -15.3189 -15.3179
     0.4911   2.6338   5.5276   6.4321

          k = 0.0783 0.1356 0.2951 (  4455 PWs)   bands (ev):

   -33.9679 -33.9466 -15.6339 -15.5406 -15.3777 -15.3738 -15.3461 -15.3386
     1.0736   1.8344   6.0454   6.3786

          k = 0.0783 0.3164 0.0590 (  4441 PWs)   bands (ev):

   -33.9779 -33.9230 -15.6860 -15.4931 -15.4571 -15.4332 -15.3697 -15.3069
     1.0908   3.5275   4.8806   5.0581

          k = 0.0783 0.3164 0.1771 (  4446 PWs)   bands (ev):

   -33.9706 -33.9307 -15.6882 -15.5343 -15.4412 -15.4261 -15.3361 -15.3247
     1.3727   3.1794   4.9384   5.1105

          k = 0.0783 0.3164 0.2951 (  4452 PWs)   bands (ev):

   -33.9581 -33.9437 -15.6665 -15.6118 -15.4034 -15.3767 -15.3609 -15.3360
     1.8918   2.5526   5.0873   5.1707

          k = 0.0783 0.4972 0.0590 (  4457 PWs)   bands (ev):

   -33.9610 -33.9328 -15.6286 -15.5339 -15.5014 -15.4659 -15.4149 -15.3101
     2.4205   3.1077   4.0056   5.0280

          k = 0.0783 0.4972 0.1771 (  4454 PWs)   bands (ev):

   -33.9574 -33.9359 -15.6787 -15.5930 -15.4684 -15.4261 -15.3609 -15.3301
     2.6480   3.2876   4.0053   4.6212

          k = 0.0783 0.4972 0.2951 (  4444 PWs)   bands (ev):

   -33.9502 -33.9419 -15.6929 -15.6619 -15.4221 -15.3773 -15.3674 -15.3381
     3.0455   3.4026   3.9612   4.1971

          k = 0.0783-0.4068 0.0590 (  4446 PWs)   bands (ev):

   -33.9683 -33.9276 -15.6513 -15.5240 -15.4748 -15.4600 -15.3962 -15.3089
     1.7302   3.5270   4.2548   5.0344

          k = 0.0783-0.4068 0.1771 (  4453 PWs)   bands (ev):

   -33.9634 -33.9331 -15.6816 -15.5720 -15.4584 -15.4282 -15.3501 -15.3281
     1.9881   3.4420   4.3040   4.8187

          k = 0.0783-0.4068 0.2951 (  4446 PWs)   bands (ev):

   -33.9539 -33.9416 -15.6831 -15.6437 -15.4153 -15.3763 -15.3664 -15.3369
     2.4565   3.0232   4.4697   4.6631

          k = 0.0783-0.2260 0.0590 (  4445 PWs)   bands (ev):

   -33.9874 -33.9203 -15.7201 -15.4564 -15.4405 -15.3998 -15.3439 -15.3048
     0.5583   3.3861   5.0733   5.6416

          k = 0.0783-0.2260 0.1771 (  4435 PWs)   bands (ev):

   -33.9782 -33.9286 -15.6977 -15.4888 -15.4225 -15.4170 -15.3247 -15.3211
     0.8593   2.8762   5.3114   5.7313

          k = 0.0783-0.2260 0.2951 (  4447 PWs)   bands (ev):

   -33.9631 -33.9449 -15.6484 -15.5742 -15.3895 -15.3762 -15.3531 -15.3366
     1.4162   2.1386   5.6188   5.7768

          k = 0.0783-0.0452 0.0590 (  4430 PWs)   bands (ev):

   -33.9985 -33.9165 -15.7603 -15.4152 -15.4109 -15.3545 -15.3107 -15.3025
    -0.0225   3.1426   5.1082   6.9045

          k = 0.0783-0.0452 0.1771 (  4422 PWs)   bands (ev):

   -33.9871 -33.9271 -15.7124 -15.4214 -15.3986 -15.3964 -15.3171 -15.3169
     0.2991   2.5009   5.6456   6.9267

          k = 0.0783-0.0452 0.2951 (  4450 PWs)   bands (ev):

   -33.9697 -33.9476 -15.6262 -15.5205 -15.3713 -15.3711 -15.3423 -15.3403
     0.8944   1.6737   6.3047   6.7833

          k = 0.2348 0.4068 0.0590 (  4434 PWs)   bands (ev):

   -33.9599 -33.9316 -15.6217 -15.5375 -15.4883 -15.4743 -15.4040 -15.3296
     2.1468   3.5782   3.9285   5.0477

          k = 0.2348 0.4068 0.1771 (  4442 PWs)   bands (ev):

   -33.9567 -33.9355 -15.6634 -15.5920 -15.4907 -15.4102 -15.3539 -15.3479
     2.3880   3.5683   4.0835   4.7303

          k = 0.2348 0.4068 0.2951 (  4447 PWs)   bands (ev):

   -33.9503 -33.9422 -15.6791 -15.6533 -15.4501 -15.4016 -15.3490 -15.3275
     2.8173   3.3006   4.3028   4.4788

          k = 0.2348 0.5876 0.0590 (  4440 PWs)   bands (ev):

   -33.9525 -33.9372 -15.5922 -15.5465 -15.5227 -15.4621 -15.4247 -15.3364
     2.7397   3.3173   3.6561   5.0613

          k = 0.2348 0.5876 0.1771 (  4450 PWs)   bands (ev):

   -33.9510 -33.9395 -15.6496 -15.6089 -15.5104 -15.3947 -15.3682 -15.3551
     2.9507   3.4753   3.7743   4.6870

          k = 0.2348 0.5876 0.2951 (  4441 PWs)   bands (ev):

   -33.9467 -33.9428 -15.6787 -15.6641 -15.4648 -15.4118 -15.3412 -15.3283
     3.3070   3.5783   3.9437   4.2268

          k = 0.2348-0.3164 0.0590 (  4442 PWs)   bands (ev):

   -33.9696 -33.9268 -15.6559 -15.5143 -15.4756 -15.4562 -15.3849 -15.3180
     1.5754   3.5871   4.4022   5.0406

          k = 0.2348-0.3164 0.1771 (  4438 PWs)   bands (ev):

   -33.9640 -33.9319 -15.6777 -15.5655 -15.4636 -15.4225 -15.3443 -15.3347
     1.8395   3.4032   4.5258   4.8706

          k = 0.2348-0.3164 0.2951 (  4444 PWs)   bands (ev):

   -33.9541 -33.9422 -15.6753 -15.6350 -15.4269 -15.3855 -15.3590 -15.3300
     2.3210   2.9131   4.6992   4.8026

          k = 0.2348-0.1356 0.0590 (  4444 PWs)   bands (ev):

   -33.9840 -33.9213 -15.7083 -15.4749 -15.4374 -15.4162 -15.3559 -15.3023
     0.7412   3.4436   5.0576   5.3497

          k = 0.2348-0.1356 0.1771 (  4445 PWs)   bands (ev):

   -33.9758 -33.9296 -15.6947 -15.5058 -15.4308 -15.4195 -15.3294 -15.3206
     1.0356   2.9855   5.1914   5.4646

          k = 0.2348-0.1356 0.2951 (  4452 PWs)   bands (ev):

   -33.9614 -33.9446 -15.6558 -15.5890 -15.3883 -15.3807 -15.3521 -15.3405
     1.5798   2.2822   5.4180   5.5346

          k = 0.3914 0.6779 0.0590 (  4450 PWs)   bands (ev):

   -33.9566 -33.9350 -15.6106 -15.5357 -15.5164 -15.4657 -15.4214 -15.3238
     2.8013   2.9547   3.8759   5.0451

          k = 0.3914 0.6779 0.1771 (  4439 PWs)   bands (ev):

   -33.9530 -33.9373 -15.6654 -15.6009 -15.4935 -15.4072 -15.3680 -15.3408
     2.9978   3.1672   3.9347   4.6349

          k = 0.3914 0.6779 0.2951 (  4442 PWs)   bands (ev):

   -33.9480 -33.9424 -15.6870 -15.6639 -15.4474 -15.3976 -15.3517 -15.3306
     3.3335   3.4413   3.9448   4.1188

          k = 0.3914-0.2260 0.0590 (  4457 PWs)   bands (ev):

   -33.9661 -33.9294 -15.6422 -15.5314 -15.4868 -15.4616 -15.4070 -15.3044
     2.0238   3.3558   4.1067   5.0254

          k = 0.3914-0.2260 0.1771 (  4465 PWs)   bands (ev):

   -33.9611 -33.9351 -15.6837 -15.5829 -15.4484 -15.4408 -15.3548 -15.3257
     2.2699   3.4376   4.0810   4.7072

          k = 0.3914-0.2260 0.2951 (  4445 PWs)   bands (ev):

   -33.9520 -33.9420 -15.6912 -15.6548 -15.4045 -15.3806 -15.3624 -15.3455
     2.7118   3.2174   4.1708   4.4264

!    total energy              =    -151.52858787 Ry
     Harris-Foulkes estimate   =    -151.52858787 Ry
     estimated scf accuracy    <          2.9E-09 Ry

     The total energy is the sum of the following terms:

     one-electron contribution =     -54.85342839 Ry
     hartree contribution      =      31.86777787 Ry
     xc contribution           =     -23.38287436 Ry
     ewald contribution        =    -105.16006299 Ry

     convergence has been achieved in   9 iterations

     Forces acting on atoms (Ry/au):

     atom    1 type  2   force =    -0.00000000   -0.00000000   -0.00000000
     atom    2 type  2   force =    -0.00000000   -0.00000000    0.00000000
     atom    3 type  1   force =     0.00000000    0.00000000   -0.00000000
     atom    4 type  1   force =    -0.00000000    0.00000000   -0.00000000
     atom    5 type  1   force =     0.00000000   -0.00000000    0.00000000
     atom    6 type  1   force =    -0.00000000    0.00000000   -0.00000000

     Total force =     0.000000     Total SCF correction =     0.000000


     entering subroutine stress ...

          total   stress  (Ry/bohr**3)                   (kbar)     P=   20.84
   0.00006487   0.00000000   0.00000000          9.54      0.00      0.00
   0.00000000   0.00006487  -0.00000000          0.00      9.54     -0.00
   0.00000000  -0.00000000   0.00029529          0.00     -0.00     43.44


     number of scf cycles    =   3
     number of bfgs steps    =   2

     enthalpy old            =    -151.5122623151 Ry
     enthalpy new            =    -151.5285878748 Ry

     CASE: enthalpy_new < enthalpy_old

     new trust radius        =       0.0756314055 bohr
     new conv_thr            =       0.0000000100 Ry

     new unit-cell volume =    464.51414 a.u.^3 (    68.83389 Ang^3 )

CELL_PARAMETERS (alat=  6.86950000)
   1.073017295   0.000000000  -0.000000000
  -0.536508648   0.929260236   0.000000000
   0.000000000  -0.000000000   1.437075164

ATOMIC_POSITIONS (crystal)
Ca       0.333333333   0.666666667   0.250000000
Ca       0.666666667   0.333333333   0.750000000
H        0.333333333   0.666666667   0.750000000
H        0.666666667   0.333333333   0.250000000
H        0.000000000   0.000000000  -0.000000000
H        0.000000000   0.000000000   0.500000000



     Writing output data file CaH2_ambient.save
     NEW-OLD atomic charge density approx. for the potential
     NEW k-points:
        k(    1) = (   0.0776626   0.1345156   0.0579882), wk =   0.0370370
        k(    2) = (   0.0776626   0.1345156   0.1739645), wk =   0.0370370
        k(    3) = (   0.0776626   0.1345156   0.2899408), wk =   0.0370370
        k(    4) = (   0.0776626   0.3138697   0.0579882), wk =   0.0740741
        k(    5) = (   0.0776626   0.3138697   0.1739645), wk =   0.0740741
        k(    6) = (   0.0776626   0.3138697   0.2899408), wk =   0.0740741
        k(    7) = (   0.0776626   0.4932239   0.0579882), wk =   0.0740741
        k(    8) = (   0.0776626   0.4932239   0.1739645), wk =   0.0740741
        k(    9) = (   0.0776626   0.4932239   0.2899408), wk =   0.0740741
        k(   10) = (   0.0776626  -0.4035468   0.0579882), wk =   0.0740741
        k(   11) = (   0.0776626  -0.4035468   0.1739645), wk =   0.0740741
        k(   12) = (   0.0776626  -0.4035468   0.2899408), wk =   0.0740741
        k(   13) = (   0.0776626  -0.2241927   0.0579882), wk =   0.0740741
        k(   14) = (   0.0776626  -0.2241927   0.1739645), wk =   0.0740741
        k(   15) = (   0.0776626  -0.2241927   0.2899408), wk =   0.0740741
        k(   16) = (   0.0776626  -0.0448385   0.0579882), wk =   0.0370370
        k(   17) = (   0.0776626  -0.0448385   0.1739645), wk =   0.0370370
        k(   18) = (   0.0776626  -0.0448385   0.2899408), wk =   0.0370370
        k(   19) = (   0.2329879   0.4035468   0.0579882), wk =   0.0370370
        k(   20) = (   0.2329879   0.4035468   0.1739645), wk =   0.0370370
        k(   21) = (   0.2329879   0.4035468   0.2899408), wk =   0.0370370
        k(   22) = (   0.2329879   0.5829009   0.0579882), wk =   0.0740741
        k(   23) = (   0.2329879   0.5829009   0.1739645), wk =   0.0740741
        k(   24) = (   0.2329879   0.5829009   0.2899408), wk =   0.0740741
        k(   25) = (   0.2329879  -0.3138697   0.0579882), wk =   0.0740741
        k(   26) = (   0.2329879  -0.3138697   0.1739645), wk =   0.0740741
        k(   27) = (   0.2329879  -0.3138697   0.2899408), wk =   0.0740741
        k(   28) = (   0.2329879  -0.1345156   0.0579882), wk =   0.0370370
        k(   29) = (   0.2329879  -0.1345156   0.1739645), wk =   0.0370370
        k(   30) = (   0.2329879  -0.1345156   0.2899408), wk =   0.0370370
        k(   31) = (   0.3883131   0.6725780   0.0579882), wk =   0.0370370
        k(   32) = (   0.3883131   0.6725780   0.1739645), wk =   0.0370370
        k(   33) = (   0.3883131   0.6725780   0.2899408), wk =   0.0370370
        k(   34) = (   0.3883131  -0.2241927   0.0579882), wk =   0.0370370
        k(   35) = (   0.3883131  -0.2241927   0.1739645), wk =   0.0370370
        k(   36) = (   0.3883131  -0.2241927   0.2899408), wk =   0.0370370
     extrapolated charge   24.66063, renormalised to   24.00000

     total cpu time spent up to now is      535.9 secs

     per-process dynamical memory:    23.0 Mb

     Self-consistent Calculation

     iteration #  1     ecut=    80.00 Ry     beta=0.30
     Davidson diagonalization with overlap
     ethr =  1.00E-06,  avg # of iterations =  4.0

     total cpu time spent up to now is      553.4 secs

     total energy              =    -151.51372865 Ry
     Harris-Foulkes estimate   =    -150.56977142 Ry
     estimated scf accuracy    <       0.02365290 Ry

     iteration #  2     ecut=    80.00 Ry     beta=0.30
     Davidson diagonalization with overlap
     ethr =  9.86E-05,  avg # of iterations =  2.0

     total cpu time spent up to now is      565.1 secs

     total energy              =    -151.53060065 Ry
     Harris-Foulkes estimate   =    -151.53076297 Ry
     estimated scf accuracy    <       0.00086715 Ry

     iteration #  3     ecut=    80.00 Ry     beta=0.30
     Davidson diagonalization with overlap
     ethr =  3.61E-06,  avg # of iterations =  1.2

     total cpu time spent up to now is      573.3 secs

     total energy              =    -151.53028428 Ry
     Harris-Foulkes estimate   =    -151.53062590 Ry
     estimated scf accuracy    <       0.00055720 Ry

     iteration #  4     ecut=    80.00 Ry     beta=0.30
     Davidson diagonalization with overlap
     ethr =  2.32E-06,  avg # of iterations =  2.0

     total cpu time spent up to now is      583.1 secs

     total energy              =    -151.53038762 Ry
     Harris-Foulkes estimate   =    -151.53038881 Ry
     estimated scf accuracy    <       0.00002888 Ry

     iteration #  5     ecut=    80.00 Ry     beta=0.30
     Davidson diagonalization with overlap
     ethr =  1.20E-07,  avg # of iterations =  2.0

     total cpu time spent up to now is      591.5 secs

     total energy              =    -151.53038683 Ry
     Harris-Foulkes estimate   =    -151.53038908 Ry
     estimated scf accuracy    <       0.00001266 Ry

     iteration #  6     ecut=    80.00 Ry     beta=0.30
     Davidson diagonalization with overlap
     ethr =  5.27E-08,  avg # of iterations =  2.0

     total cpu time spent up to now is      601.1 secs

     total energy              =    -151.53038795 Ry
     Harris-Foulkes estimate   =    -151.53038798 Ry
     estimated scf accuracy    <       0.00000016 Ry

     iteration #  7     ecut=    80.00 Ry     beta=0.30
     Davidson diagonalization with overlap
     ethr =  6.73E-10,  avg # of iterations =  3.0

     total cpu time spent up to now is      610.9 secs

     total energy              =    -151.53038800 Ry
     Harris-Foulkes estimate   =    -151.53038799 Ry
     estimated scf accuracy    <       0.00000004 Ry

     iteration #  8     ecut=    80.00 Ry     beta=0.30
     Davidson diagonalization with overlap
     ethr =  1.81E-10,  avg # of iterations =  1.1

     total cpu time spent up to now is      618.5 secs

     End of self-consistent calculation

          k = 0.0777 0.1345 0.0580 (  4433 PWs)   bands (ev):

   -34.3644 -34.2987 -16.0993 -15.8022 -15.7949 -15.7641 -15.7122 -15.6918
    -0.0167   2.9901   4.7460   6.1061

          k = 0.0777 0.1345 0.1740 (  4435 PWs)   bands (ev):

   -34.3557 -34.3076 -16.0634 -15.8296 -15.7843 -15.7796 -15.7083 -15.7055
     0.2841   2.3722   5.2085   6.1463

          k = 0.0777 0.1345 0.2899 (  4455 PWs)   bands (ev):

   -34.3419 -34.3237 -15.9973 -15.9134 -15.7566 -15.7551 -15.7291 -15.7254
     0.8441   1.5822   5.7369   6.0770

          k = 0.0777 0.3139 0.0580 (  4441 PWs)   bands (ev):

   -34.3500 -34.3033 -16.0452 -15.8604 -15.8289 -15.8138 -15.7570 -15.6959
     0.8766   3.2800   4.6310   4.7429

          k = 0.0777 0.3139 0.1740 (  4446 PWs)   bands (ev):

   -34.3439 -34.3099 -16.0443 -15.9037 -15.8160 -15.8012 -15.7276 -15.7120
     1.1470   2.9118   4.6708   4.8380

          k = 0.0777 0.3139 0.2899 (  4452 PWs)   bands (ev):

   -34.3333 -34.3211 -16.0227 -15.9730 -15.7807 -15.7616 -15.7435 -15.7270
     1.6469   2.2885   4.8180   4.9010

          k = 0.0777 0.4932 0.0580 (  4457 PWs)   bands (ev):

   -34.3356 -34.3116 -15.9917 -15.8994 -15.8770 -15.8347 -15.7977 -15.6993
     2.1850   2.8635   3.7797   4.7232

          k = 0.0777 0.4932 0.1740 (  4454 PWs)   bands (ev):

   -34.3326 -34.3142 -16.0326 -15.9561 -15.8406 -15.8040 -15.7514 -15.7169
     2.4028   3.0292   3.7657   4.3394

          k = 0.0777 0.4932 0.2899 (  4444 PWs)   bands (ev):

   -34.3264 -34.3192 -16.0440 -16.0165 -15.7979 -15.7600 -15.7550 -15.7300
     2.7828   3.1233   3.7158   3.9390

          k = 0.0777-0.4035 0.0580 (  4446 PWs)   bands (ev):

   -34.3419 -34.3071 -16.0135 -15.8890 -15.8516 -15.8307 -15.7810 -15.6980
     1.5045   3.2778   4.0255   4.7227

          k = 0.0777-0.4035 0.1740 (  4453 PWs)   bands (ev):

   -34.3378 -34.3118 -16.0365 -15.9371 -15.8316 -15.8048 -15.7412 -15.7151
     1.7521   3.1738   4.0601   4.5401

          k = 0.0777-0.4035 0.2899 (  4446 PWs)   bands (ev):

   -34.3297 -34.3190 -16.0360 -16.0005 -15.7917 -15.7614 -15.7505 -15.7286
     2.2030   2.7526   4.2134   4.3993

          k = 0.0777-0.2242 0.0580 (  4445 PWs)   bands (ev):

   -34.3582 -34.3012 -16.0759 -15.8268 -15.8121 -15.7870 -15.7327 -15.6937
     0.3556   3.1394   4.7350   5.3873

          k = 0.0777-0.2242 0.1740 (  4435 PWs)   bands (ev):

   -34.3503 -34.3081 -16.0542 -15.8644 -15.7986 -15.7917 -15.7156 -15.7087
     0.6440   2.6113   5.0083   5.4655

          k = 0.0777-0.2242 0.2899 (  4447 PWs)   bands (ev):

   -34.3376 -34.3221 -16.0084 -15.9411 -15.7677 -15.7594 -15.7357 -15.7259
     1.1798   1.8811   5.3299   5.4963

          k = 0.0777-0.0448 0.0580 (  4430 PWs)   bands (ev):

   -34.3677 -34.2980 -16.1119 -15.7891 -15.7851 -15.7510 -15.6992 -15.6911
    -0.2107   2.8987   4.7512   6.6132

          k = 0.0777-0.0448 0.1740 (  4422 PWs)   bands (ev):

   -34.3580 -34.3070 -16.0688 -15.8091 -15.7750 -15.7725 -15.7052 -15.7037
     0.0967   2.2416   5.3160   6.6215

          k = 0.0777-0.0448 0.2899 (  4450 PWs)   bands (ev):

   -34.3434 -34.3246 -15.9915 -15.8972 -15.7513 -15.7507 -15.7256 -15.7250
     0.6687   1.4247   5.9807   6.4623

          k = 0.2330 0.4035 0.0580 (  4434 PWs)   bands (ev):

   -34.3345 -34.3104 -15.9871 -15.9002 -15.8645 -15.8455 -15.7858 -15.7173
     1.9155   3.3315   3.6962   4.7432

          k = 0.2330 0.4035 0.1740 (  4442 PWs)   bands (ev):

   -34.3319 -34.3137 -16.0203 -15.9545 -15.8580 -15.7925 -15.7388 -15.7382
     2.1467   3.3034   3.8410   4.4496

          k = 0.2330 0.4035 0.2899 (  4447 PWs)   bands (ev):

   -34.3265 -34.3195 -16.0324 -16.0089 -15.8222 -15.7806 -15.7391 -15.7212
     2.5592   3.0274   4.0471   4.2159

          k = 0.2330 0.5829 0.0580 (  4440 PWs)   bands (ev):

   -34.3283 -34.3151 -15.9598 -15.9098 -15.8943 -15.8351 -15.8040 -15.7237
     2.5037   3.0748   3.4198   4.7630

          k = 0.2330 0.5829 0.1740 (  4450 PWs)   bands (ev):

   -34.3271 -34.3172 -16.0072 -15.9704 -15.8750 -15.7792 -15.7545 -15.7420
     2.7051   3.2183   3.5275   4.4056

          k = 0.2330 0.5829 0.2899 (  4441 PWs)   bands (ev):

   -34.3233 -34.3200 -16.0316 -16.0185 -15.8351 -15.7894 -15.7332 -15.7221
     3.0438   3.3023   3.6895   3.9658

          k = 0.2330-0.3139 0.0580 (  4442 PWs)   bands (ev):

   -34.3429 -34.3064 -16.0180 -15.8793 -15.8466 -15.8346 -15.7694 -15.7063
     1.3523   3.3397   4.1675   4.7266

          k = 0.2330-0.3139 0.1740 (  4438 PWs)   bands (ev):

   -34.3381 -34.3107 -16.0339 -15.9309 -15.8343 -15.8017 -15.7331 -15.7231
     1.6057   3.1355   4.2798   4.5889

          k = 0.2330-0.3139 0.2899 (  4444 PWs)   bands (ev):

   -34.3298 -34.3195 -16.0296 -15.9929 -15.8016 -15.7673 -15.7456 -15.7227
     2.0693   2.6441   4.4399   4.5363

          k = 0.2330-0.1345 0.0580 (  4444 PWs)   bands (ev):

   -34.3552 -34.3020 -16.0653 -15.8437 -15.8087 -15.8010 -15.7448 -15.6915
     0.5343   3.1965   4.7253   5.1004

          k = 0.2330-0.1345 0.1740 (  4445 PWs)   bands (ev):

   -34.3483 -34.3090 -16.0509 -15.8791 -15.8072 -15.7931 -15.7218 -15.7073
     0.8165   2.7194   4.8968   5.2026

          k = 0.2330-0.1345 0.2899 (  4452 PWs)   bands (ev):

   -34.3362 -34.3219 -16.0142 -15.9535 -15.7660 -15.7647 -15.7346 -15.7307
     1.3403   2.0223   5.1367   5.2598

          k = 0.3883 0.6726 0.0580 (  4450 PWs)   bands (ev):

   -34.3318 -34.3133 -15.9753 -15.8996 -15.8912 -15.8363 -15.8025 -15.7119
     2.5642   2.7124   3.6448   4.7442

          k = 0.3883 0.6726 0.1740 (  4439 PWs)   bands (ev):

   -34.3287 -34.3152 -16.0208 -15.9634 -15.8610 -15.7893 -15.7562 -15.7278
     2.7520   2.9111   3.6910   4.3525

          k = 0.3883 0.6726 0.2899 (  4442 PWs)   bands (ev):

   -34.3245 -34.3196 -16.0388 -16.0182 -15.8201 -15.7771 -15.7421 -15.7238
     3.0681   3.1651   3.6929   3.8621

          k = 0.3883-0.2242 0.0580 (  4457 PWs)   bands (ev):

   -34.3401 -34.3086 -16.0046 -15.8968 -15.8635 -15.8302 -15.7913 -15.6939
     1.7936   3.1070   3.8822   4.7169

          k = 0.3883-0.2242 0.1740 (  4465 PWs)   bands (ev):

   -34.3359 -34.3136 -16.0375 -15.9470 -15.8270 -15.8122 -15.7465 -15.7124
     2.0297   3.1711   3.8420   4.4283

          k = 0.3883-0.2242 0.2899 (  4445 PWs)   bands (ev):

   -34.3280 -34.3193 -16.0427 -16.0101 -15.7807 -15.7686 -15.7442 -15.7383
     2.4545   2.9428   3.9204   4.1655

!    total energy              =    -151.53038801 Ry
     Harris-Foulkes estimate   =    -151.53038801 Ry
     estimated scf accuracy    <          7.2E-09 Ry

     The total energy is the sum of the following terms:

     one-electron contribution =     -56.61044773 Ry
     hartree contribution      =      32.41766425 Ry
     xc contribution           =     -23.33639764 Ry
     ewald contribution        =    -104.00120689 Ry

     convergence has been achieved in   8 iterations

     Forces acting on atoms (Ry/au):

     atom    1 type  2   force =    -0.00000000    0.00000000    0.00000000
     atom    2 type  2   force =     0.00000000    0.00000000    0.00000000
     atom    3 type  1   force =     0.00000000    0.00000000   -0.00000000
     atom    4 type  1   force =    -0.00000000   -0.00000000    0.00000000
     atom    5 type  1   force =    -0.00000000   -0.00000000   -0.00000000
     atom    6 type  1   force =    -0.00000000   -0.00000000   -0.00000000

     Total force =     0.000000     Total SCF correction =     0.000000


     entering subroutine stress ...

          total   stress  (Ry/bohr**3)                   (kbar)     P=    2.00
  -0.00005415   0.00000000   0.00000000         -7.97      0.00      0.00
   0.00000000  -0.00005415  -0.00000000          0.00     -7.97     -0.00
   0.00000000  -0.00000000   0.00014899          0.00     -0.00     21.92


     number of scf cycles    =   4
     number of bfgs steps    =   3

     enthalpy old            =    -151.5285878748 Ry
     enthalpy new            =    -151.5303880099 Ry

     CASE: enthalpy_new < enthalpy_old

     new trust radius        =       0.0464264328 bohr
     new conv_thr            =       0.0000000100 Ry

     new unit-cell volume =    470.43194 a.u.^3 (    69.71082 Ang^3 )

CELL_PARAMETERS (alat=  6.86950000)
   1.074062045   0.000000000   0.000000000
  -0.537031022   0.930165016  -0.000000000
   0.000000000  -0.000000000   1.452553182

ATOMIC_POSITIONS (crystal)
Ca       0.333333333   0.666666667   0.250000000
Ca       0.666666667   0.333333333   0.750000000
H        0.333333333   0.666666667   0.750000000
H        0.666666667   0.333333333   0.250000000
H        0.000000000   0.000000000  -0.000000000
H        0.000000000   0.000000000   0.500000000



     Writing output data file CaH2_ambient.save
     NEW-OLD atomic charge density approx. for the potential
     NEW k-points:
        k(    1) = (   0.0775871   0.1343848   0.0573702), wk =   0.0370370
        k(    2) = (   0.0775871   0.1343848   0.1721107), wk =   0.0370370
        k(    3) = (   0.0775871   0.1343848   0.2868512), wk =   0.0370370
        k(    4) = (   0.0775871   0.3135644   0.0573702), wk =   0.0740741
        k(    5) = (   0.0775871   0.3135644   0.1721107), wk =   0.0740741
        k(    6) = (   0.0775871   0.3135644   0.2868512), wk =   0.0740741
        k(    7) = (   0.0775871   0.4927441   0.0573702), wk =   0.0740741
        k(    8) = (   0.0775871   0.4927441   0.1721107), wk =   0.0740741
        k(    9) = (   0.0775871   0.4927441   0.2868512), wk =   0.0740741
        k(   10) = (   0.0775871  -0.4031543   0.0573702), wk =   0.0740741
        k(   11) = (   0.0775871  -0.4031543   0.1721107), wk =   0.0740741
        k(   12) = (   0.0775871  -0.4031543   0.2868512), wk =   0.0740741
        k(   13) = (   0.0775871  -0.2239746   0.0573702), wk =   0.0740741
        k(   14) = (   0.0775871  -0.2239746   0.1721107), wk =   0.0740741
        k(   15) = (   0.0775871  -0.2239746   0.2868512), wk =   0.0740741
        k(   16) = (   0.0775871  -0.0447949   0.0573702), wk =   0.0370370
        k(   17) = (   0.0775871  -0.0447949   0.1721107), wk =   0.0370370
        k(   18) = (   0.0775871  -0.0447949   0.2868512), wk =   0.0370370
        k(   19) = (   0.2327612   0.4031543   0.0573702), wk =   0.0370370
        k(   20) = (   0.2327612   0.4031543   0.1721107), wk =   0.0370370
        k(   21) = (   0.2327612   0.4031543   0.2868512), wk =   0.0370370
        k(   22) = (   0.2327612   0.5823339   0.0573702), wk =   0.0740741
        k(   23) = (   0.2327612   0.5823339   0.1721107), wk =   0.0740741
        k(   24) = (   0.2327612   0.5823339   0.2868512), wk =   0.0740741
        k(   25) = (   0.2327612  -0.3135644   0.0573702), wk =   0.0740741
        k(   26) = (   0.2327612  -0.3135644   0.1721107), wk =   0.0740741
        k(   27) = (   0.2327612  -0.3135644   0.2868512), wk =   0.0740741
        k(   28) = (   0.2327612  -0.1343848   0.0573702), wk =   0.0370370
        k(   29) = (   0.2327612  -0.1343848   0.1721107), wk =   0.0370370
        k(   30) = (   0.2327612  -0.1343848   0.2868512), wk =   0.0370370
        k(   31) = (   0.3879354   0.6719238   0.0573702), wk =   0.0370370
        k(   32) = (   0.3879354   0.6719238   0.1721107), wk =   0.0370370
        k(   33) = (   0.3879354   0.6719238   0.2868512), wk =   0.0370370
        k(   34) = (   0.3879354  -0.2239746   0.0573702), wk =   0.0370370
        k(   35) = (   0.3879354  -0.2239746   0.1721107), wk =   0.0370370
        k(   36) = (   0.3879354  -0.2239746   0.2868512), wk =   0.0370370
     extrapolated charge   24.25159, renormalised to   24.00000

     total cpu time spent up to now is      703.8 secs

     per-process dynamical memory:    23.0 Mb

     Self-consistent Calculation

     iteration #  1     ecut=    80.00 Ry     beta=0.30
     Davidson diagonalization with overlap
     ethr =  1.00E-06,  avg # of iterations =  4.0

     total cpu time spent up to now is      719.4 secs

     total energy              =    -151.52856007 Ry
     Harris-Foulkes estimate   =    -151.16261877 Ry
     estimated scf accuracy    <       0.00356849 Ry

     iteration #  2     ecut=    80.00 Ry     beta=0.30
     Davidson diagonalization with overlap
     ethr =  1.49E-05,  avg # of iterations =  2.0

     total cpu time spent up to now is      730.4 secs

     total energy              =    -151.53094449 Ry
     Harris-Foulkes estimate   =    -151.53097634 Ry
     estimated scf accuracy    <       0.00016211 Ry

     iteration #  3     ecut=    80.00 Ry     beta=0.30
     Davidson diagonalization with overlap
     ethr =  6.75E-07,  avg # of iterations =  1.1

     total cpu time spent up to now is      738.2 secs

     total energy              =    -151.53088461 Ry
     Harris-Foulkes estimate   =    -151.53094872 Ry
     estimated scf accuracy    <       0.00010209 Ry

     iteration #  4     ecut=    80.00 Ry     beta=0.30
     Davidson diagonalization with overlap
     ethr =  4.25E-07,  avg # of iterations =  2.0

     total cpu time spent up to now is      747.6 secs

     total energy              =    -151.53090414 Ry
     Harris-Foulkes estimate   =    -151.53090429 Ry
     estimated scf accuracy    <       0.00000559 Ry

     iteration #  5     ecut=    80.00 Ry     beta=0.30
     Davidson diagonalization with overlap
     ethr =  2.33E-08,  avg # of iterations =  1.8

     total cpu time spent up to now is      755.6 secs

     total energy              =    -151.53090391 Ry
     Harris-Foulkes estimate   =    -151.53090435 Ry
     estimated scf accuracy    <       0.00000223 Ry

     iteration #  6     ecut=    80.00 Ry     beta=0.30
     Davidson diagonalization with overlap
     ethr =  9.29E-09,  avg # of iterations =  2.0

     total cpu time spent up to now is      764.5 secs

     total energy              =    -151.53090409 Ry
     Harris-Foulkes estimate   =    -151.53090408 Ry
     estimated scf accuracy    <       0.00000002 Ry

     iteration #  7     ecut=    80.00 Ry     beta=0.30
     Davidson diagonalization with overlap
     ethr =  7.42E-11,  avg # of iterations =  3.1

     total cpu time spent up to now is      774.7 secs

     total energy              =    -151.53090410 Ry
     Harris-Foulkes estimate   =    -151.53090410 Ry
     estimated scf accuracy    <       0.00000001 Ry

     iteration #  8     ecut=    80.00 Ry     beta=0.30
     Davidson diagonalization with overlap
     ethr =  4.36E-11,  avg # of iterations =  2.0

     total cpu time spent up to now is      783.3 secs

     End of self-consistent calculation

          k = 0.0776 0.1344 0.0574 (  4433 PWs)   bands (ev):

   -34.4951 -34.4343 -16.2250 -15.9327 -15.9252 -15.9056 -15.8503 -15.8296
    -0.0861   2.8941   4.5838   6.0224

          k = 0.0776 0.1344 0.1721 (  4435 PWs)   bands (ev):

   -34.4871 -34.4426 -16.1902 -15.9667 -15.9164 -15.9110 -15.8472 -15.8423
     0.2070   2.2645   5.0706   6.0518

          k = 0.0776 0.1344 0.2869 (  4455 PWs)   bands (ev):

   -34.4744 -34.4575 -16.1267 -16.0464 -15.8898 -15.8896 -15.8640 -15.8626
     0.7542   1.4795   5.6125   5.9659

          k = 0.0776 0.3136 0.0574 (  4441 PWs)   bands (ev):

   -34.4816 -34.4383 -16.1730 -15.9905 -15.9618 -15.9477 -15.8955 -15.8343
     0.8034   3.1921   4.5310   4.6177

          k = 0.0776 0.3136 0.1721 (  4446 PWs)   bands (ev):

   -34.4759 -34.4445 -16.1705 -16.0353 -15.9492 -15.9331 -15.8683 -15.8494
     1.0669   2.8081   4.5674   4.7370

          k = 0.0776 0.3136 0.2869 (  4452 PWs)   bands (ev):

   -34.4661 -34.4548 -16.1486 -16.1010 -15.9142 -15.8990 -15.8792 -15.8668
     1.5551   2.1856   4.7176   4.8012

          k = 0.0776 0.4927 0.0574 (  4457 PWs)   bands (ev):

   -34.4680 -34.4458 -16.1210 -16.0298 -16.0114 -15.9639 -15.9353 -15.8380
     2.1083   2.7862   3.7038   4.5826

          k = 0.0776 0.4927 0.1721 (  4454 PWs)   bands (ev):

   -34.4653 -34.4482 -16.1579 -16.0853 -15.9733 -15.9377 -15.8925 -15.8544
     2.3196   2.9435   3.6802   4.2176

          k = 0.0776 0.4927 0.2869 (  4444 PWs)   bands (ev):

   -34.4596 -34.4528 -16.1679 -16.1418 -15.9313 -15.8976 -15.8933 -15.8705
     2.6889   3.0236   3.6240   3.8387

          k = 0.0776-0.4032 0.0574 (  4446 PWs)   bands (ev):

   -34.4739 -34.4417 -16.1424 -16.0190 -15.9868 -15.9606 -15.9189 -15.8366
     1.4294   3.1958   3.9498   4.5793

          k = 0.0776-0.4032 0.1721 (  4453 PWs)   bands (ev):

   -34.4702 -34.4460 -16.1622 -16.0670 -15.9645 -15.9377 -15.8822 -15.8525
     1.6704   3.0767   3.9745   4.4246

          k = 0.0776-0.4032 0.2869 (  4446 PWs)   bands (ev):

   -34.4627 -34.4526 -16.1606 -16.1267 -15.9252 -15.8996 -15.8872 -15.8690
     2.1103   2.6502   4.1205   4.2992

          k = 0.0776-0.2240 0.0574 (  4445 PWs)   bands (ev):

   -34.4893 -34.4366 -16.2025 -15.9573 -15.9427 -15.9256 -15.8712 -15.8318
     0.2845   3.0466   4.5788   5.3086

          k = 0.0776-0.2240 0.1721 (  4435 PWs)   bands (ev):

   -34.4820 -34.4429 -16.1808 -15.9985 -15.9315 -15.9229 -15.8557 -15.8458
     0.5655   2.5048   4.8799   5.3778

          k = 0.0776-0.2240 0.2869 (  4447 PWs)   bands (ev):

   -34.4703 -34.4559 -16.1361 -16.0716 -15.9011 -15.8954 -15.8709 -15.8646
     1.0891   1.7781   5.2167   5.3949

          k = 0.0776-0.0448 0.0574 (  4430 PWs)   bands (ev):

   -34.4982 -34.4337 -16.2370 -15.9197 -15.9155 -15.8941 -15.8369 -15.8286
    -0.2791   2.8012   4.5856   6.5240

          k = 0.0776-0.0448 0.1721 (  4422 PWs)   bands (ev):

   -34.4892 -34.4420 -16.1958 -15.9486 -15.9068 -15.9039 -15.8427 -15.8403
     0.0204   2.1334   5.1717   6.5196

          k = 0.0776-0.0448 0.2869 (  4450 PWs)   bands (ev):

   -34.4759 -34.4585 -16.1219 -16.0321 -15.8849 -15.8838 -15.8609 -15.8605
     0.5794   1.3222   5.8474   6.3416

          k = 0.2328 0.4032 0.0574 (  4434 PWs)   bands (ev):

   -34.4670 -34.4446 -16.1172 -16.0290 -15.9979 -15.9777 -15.9221 -15.8560
     1.8397   3.2515   3.6221   4.6031

          k = 0.2328 0.4032 0.1721 (  4442 PWs)   bands (ev):

   -34.4646 -34.4477 -16.1466 -16.0833 -15.9875 -15.9297 -15.8794 -15.8753
     2.0644   3.2108   3.7599   4.3297

          k = 0.2328 0.4032 0.2869 (  4447 PWs)   bands (ev):

   -34.4596 -34.4531 -16.1570 -16.1345 -15.9539 -15.9158 -15.8791 -15.8630
     2.4662   2.9263   3.9557   4.1150

          k = 0.2328 0.5823 0.0574 (  4440 PWs)   bands (ev):

   -34.4612 -34.4489 -16.0908 -16.0401 -16.0248 -15.9680 -15.9397 -15.8626
     2.4272   2.9983   3.3439   4.6260

          k = 0.2328 0.5823 0.1721 (  4450 PWs)   bands (ev):

   -34.4601 -34.4509 -16.1337 -16.0985 -16.0036 -15.9173 -15.8939 -15.8802
     2.6222   3.1334   3.4443   4.2833

          k = 0.2328 0.5823 0.2869 (  4441 PWs)   bands (ev):

   -34.4565 -34.4535 -16.1560 -16.1435 -15.9664 -15.9240 -15.8744 -15.8642
     2.9504   3.2052   3.5979   3.8626

          k = 0.2328-0.3136 0.0574 (  4442 PWs)   bands (ev):

   -34.4749 -34.4411 -16.1469 -16.0089 -15.9793 -15.9683 -15.9067 -15.8449
     1.2776   3.2561   4.0929   4.5820

          k = 0.2328-0.3136 0.1721 (  4438 PWs)   bands (ev):

   -34.4705 -34.4450 -16.1600 -16.0609 -15.9650 -15.9370 -15.8733 -15.8609
     1.5244   3.0361   4.1968   4.4716

          k = 0.2328-0.3136 0.2869 (  4444 PWs)   bands (ev):

   -34.4628 -34.4532 -16.1547 -16.1195 -15.9342 -15.9041 -15.8832 -15.8637
     1.9768   2.5416   4.3467   4.4352

          k = 0.2328-0.1344 0.0574 (  4444 PWs)   bands (ev):

   -34.4865 -34.4372 -16.1922 -15.9740 -15.9393 -15.9382 -15.8839 -15.8297
     0.4624   3.1053   4.5722   5.0224

          k = 0.2328-0.1344 0.1721 (  4445 PWs)   bands (ev):

   -34.4801 -34.4437 -16.1774 -16.0123 -15.9407 -15.9238 -15.8627 -15.8444
     0.7374   2.6137   4.7740   5.1143

          k = 0.2328-0.1344 0.2869 (  4452 PWs)   bands (ev):

   -34.4689 -34.4557 -16.1412 -16.0830 -15.9018 -15.8987 -15.8706 -15.8696
     1.2492   1.9193   5.0283   5.1599

          k = 0.3879 0.6719 0.0574 (  4450 PWs)   bands (ev):

   -34.4645 -34.4473 -16.1053 -16.0285 -16.0254 -15.9670 -15.9393 -15.8506
     2.4859   2.6374   3.5691   4.6058

          k = 0.3879 0.6719 0.1721 (  4439 PWs)   bands (ev):

   -34.4616 -34.4491 -16.1466 -16.0921 -15.9911 -15.9257 -15.8964 -15.8657
     2.6679   2.8279   3.6072   4.2292

          k = 0.3879 0.6719 0.2869 (  4442 PWs)   bands (ev):

   -34.4577 -34.4532 -16.1629 -16.1434 -15.9523 -15.9126 -15.8825 -15.8652
     2.9731   3.0696   3.6013   3.7587

          k = 0.3879-0.2240 0.0574 (  4457 PWs)   bands (ev):

   -34.4724 -34.4430 -16.1336 -16.0272 -15.9985 -15.9589 -15.9295 -15.8326
     1.7178   3.0276   3.8060   4.5746

          k = 0.3879-0.2240 0.1721 (  4465 PWs)   bands (ev):

   -34.4684 -34.4478 -16.1628 -16.0765 -15.9630 -15.9422 -15.8880 -15.8497
     1.9474   3.0796   3.7551   4.3109

          k = 0.3879-0.2240 0.2869 (  4445 PWs)   bands (ev):

   -34.4610 -34.4530 -16.1668 -16.1359 -15.9130 -15.9087 -15.8804 -15.8792
     2.3614   2.8409   3.8285   4.0657

!    total energy              =    -151.53090410 Ry
     Harris-Foulkes estimate   =    -151.53090410 Ry
     estimated scf accuracy    <          1.3E-09 Ry

     The total energy is the sum of the following terms:

     one-electron contribution =     -57.26287901 Ry
     hartree contribution      =      32.62632646 Ry
     xc contribution           =     -23.32087028 Ry
     ewald contribution        =    -103.57348128 Ry

     convergence has been achieved in   8 iterations

     Forces acting on atoms (Ry/au):

     atom    1 type  2   force =    -0.00000000   -0.00000000   -0.00000000
     atom    2 type  2   force =     0.00000000    0.00000000   -0.00000000
     atom    3 type  1   force =    -0.00000000    0.00000000   -0.00000000
     atom    4 type  1   force =     0.00000000   -0.00000000   -0.00000000
     atom    5 type  1   force =     0.00000000    0.00000000    0.00000000
     atom    6 type  1   force =     0.00000000    0.00000000    0.00000000

     Total force =     0.000000     Total SCF correction =     0.000000


     entering subroutine stress ...

          total   stress  (Ry/bohr**3)                   (kbar)     P=   -3.75
  -0.00007976   0.00000000  -0.00000000        -11.73      0.00     -0.00
   0.00000000  -0.00007976   0.00000000          0.00    -11.73      0.00
  -0.00000000  -0.00000000   0.00008299         -0.00     -0.00     12.21


     number of scf cycles    =   5
     number of bfgs steps    =   4

     enthalpy old            =    -151.5303880099 Ry
     enthalpy new            =    -151.5309041014 Ry

     CASE: enthalpy_new < enthalpy_old

     new trust radius        =       0.0569054762 bohr
     new conv_thr            =       0.0000000100 Ry

     new unit-cell volume =    474.19345 a.u.^3 (    70.26822 Ang^3 )

CELL_PARAMETERS (alat=  6.86950000)
   1.071343347   0.000000000  -0.000000000
  -0.535671673   0.927810554  -0.000000000
   0.000000000  -0.000000000   1.471608127

ATOMIC_POSITIONS (crystal)
Ca       0.333333333   0.666666667   0.250000000
Ca       0.666666667   0.333333333   0.750000000
H        0.333333333   0.666666667   0.750000000
H        0.666666667   0.333333333   0.250000000
H        0.000000000   0.000000000  -0.000000000
H       -0.000000000   0.000000000   0.500000000



     Writing output data file CaH2_ambient.save
     NEW-OLD atomic charge density approx. for the potential
     NEW k-points:
        k(    1) = (   0.0777840   0.1347258   0.0566274), wk =   0.0370370
        k(    2) = (   0.0777840   0.1347258   0.1698822), wk =   0.0370370
        k(    3) = (   0.0777840   0.1347258   0.2831370), wk =   0.0370370
        k(    4) = (   0.0777840   0.3143602   0.0566274), wk =   0.0740741
        k(    5) = (   0.0777840   0.3143602   0.1698822), wk =   0.0740741
        k(    6) = (   0.0777840   0.3143602   0.2831370), wk =   0.0740741
        k(    7) = (   0.0777840   0.4939945   0.0566274), wk =   0.0740741
        k(    8) = (   0.0777840   0.4939945   0.1698822), wk =   0.0740741
        k(    9) = (   0.0777840   0.4939945   0.2831370), wk =   0.0740741
        k(   10) = (   0.0777840  -0.4041773   0.0566274), wk =   0.0740741
        k(   11) = (   0.0777840  -0.4041773   0.1698822), wk =   0.0740741
        k(   12) = (   0.0777840  -0.4041773   0.2831370), wk =   0.0740741
        k(   13) = (   0.0777840  -0.2245430   0.0566274), wk =   0.0740741
        k(   14) = (   0.0777840  -0.2245430   0.1698822), wk =   0.0740741
        k(   15) = (   0.0777840  -0.2245430   0.2831370), wk =   0.0740741
        k(   16) = (   0.0777840  -0.0449086   0.0566274), wk =   0.0370370
        k(   17) = (   0.0777840  -0.0449086   0.1698822), wk =   0.0370370
        k(   18) = (   0.0777840  -0.0449086   0.2831370), wk =   0.0370370
        k(   19) = (   0.2333519   0.4041773   0.0566274), wk =   0.0370370
        k(   20) = (   0.2333519   0.4041773   0.1698822), wk =   0.0370370
        k(   21) = (   0.2333519   0.4041773   0.2831370), wk =   0.0370370
        k(   22) = (   0.2333519   0.5838117   0.0566274), wk =   0.0740741
        k(   23) = (   0.2333519   0.5838117   0.1698822), wk =   0.0740741
        k(   24) = (   0.2333519   0.5838117   0.2831370), wk =   0.0740741
        k(   25) = (   0.2333519  -0.3143602   0.0566274), wk =   0.0740741
        k(   26) = (   0.2333519  -0.3143602   0.1698822), wk =   0.0740741
        k(   27) = (   0.2333519  -0.3143602   0.2831370), wk =   0.0740741
[...]

     crystal axes: (cart. coord. in units of alat)
               a(1) = (   1.063151   0.000000   0.000000 )  
               a(2) = (  -0.531576   0.920716  -0.000000 )  
               a(3) = (  -0.000000  -0.000000   1.485799 )  

     reciprocal axes: (cart. coord. in units 2 pi/alat)
               b(1) = (  0.940600  0.543056  0.000000 )  
               b(2) = ( -0.000000  1.086111  0.000000 )  
               b(3) = ( -0.000000  0.000000  0.673038 )  


     PseudoPot. # 1 for H  read from file:
     /home/ilia/espresso/pseudo/H.pbe-sp-mt.ncpp
     MD5 check sum: 7a641936b52ccecd26bd1ad87cca5aed
     Pseudo is Norm-conserving, Zval =  1.0
     Generated by old ld1 code (numerical format)
     Using radial grid of 1076 points,  0 beta functions with: 

     PseudoPot. # 2 for Ca read from file:
     /home/ilia/espresso/pseudo/Ca.pbe-sp-mt_ion2.ncpp
     MD5 check sum: 4bcd670d05521f7b178fdf0a334578ab
     Pseudo is Norm-conserving, Zval = 10.0
     Generated by old ld1 code (numerical format)
     Using radial grid of 1153 points,  1 beta functions with: 
                l(1) =   1

     atomic species   valence    mass     pseudopotential
        H              1.00     1.00700     H ( 1.00)
        Ca            10.00    40.07800     Ca( 1.00)

     24 Sym. Ops., with inversion, found (12 have fractional translation)



   Cartesian axes

     site n.     atom                  positions (alat units)
         1           Ca  tau(   1) = (  -0.0000000   0.6138107   0.3714498  )
         2           Ca  tau(   2) = (   0.5315756   0.3069053   1.1143495  )
         3           H   tau(   3) = (  -0.0000000   0.6138107   1.1143495  )
         4           H   tau(   4) = (   0.5315756   0.3069053   0.3714498  )
         5           H   tau(   5) = (   0.0000000   0.0000000  -0.0000000  )
         6           H   tau(   6) = (  -0.0000000  -0.0000000   0.7428996  )

     number of k points=    36
                       cart. coord. in units 2pi/alat
        k(    1) = (   0.0783833   0.1357639   0.0560865), wk =   0.0370370
        k(    2) = (   0.0783833   0.1357639   0.1682596), wk =   0.0370370
        k(    3) = (   0.0783833   0.1357639   0.2804327), wk =   0.0370370
        k(    4) = (   0.0783833   0.3167824   0.0560865), wk =   0.0740741
        k(    5) = (   0.0783833   0.3167824   0.1682596), wk =   0.0740741
        k(    6) = (   0.0783833   0.3167824   0.2804327), wk =   0.0740741
        k(    7) = (   0.0783833   0.4978010   0.0560865), wk =   0.0740741
        k(    8) = (   0.0783833   0.4978010   0.1682596), wk =   0.0740741
        k(    9) = (   0.0783833   0.4978010   0.2804327), wk =   0.0740741
        k(   10) = (   0.0783833  -0.4072917   0.0560865), wk =   0.0740741
        k(   11) = (   0.0783833  -0.4072917   0.1682596), wk =   0.0740741
        k(   12) = (   0.0783833  -0.4072917   0.2804327), wk =   0.0740741
        k(   13) = (   0.0783833  -0.2262732   0.0560865), wk =   0.0740741
        k(   14) = (   0.0783833  -0.2262732   0.1682596), wk =   0.0740741
        k(   15) = (   0.0783833  -0.2262732   0.2804327), wk =   0.0740741
        k(   16) = (   0.0783833  -0.0452546   0.0560865), wk =   0.0370370
        k(   17) = (   0.0783833  -0.0452546   0.1682596), wk =   0.0370370
        k(   18) = (   0.0783833  -0.0452546   0.2804327), wk =   0.0370370
        k(   19) = (   0.2351500   0.4072917   0.0560865), wk =   0.0370370
        k(   20) = (   0.2351500   0.4072917   0.1682596), wk =   0.0370370
        k(   21) = (   0.2351500   0.4072917   0.2804327), wk =   0.0370370
        k(   22) = (   0.2351500   0.5883103   0.0560865), wk =   0.0740741
        k(   23) = (   0.2351500   0.5883103   0.1682596), wk =   0.0740741
        k(   24) = (   0.2351500   0.5883103   0.2804327), wk =   0.0740741
        k(   25) = (   0.2351500  -0.3167824   0.0560865), wk =   0.0740741
        k(   26) = (   0.2351500  -0.3167824   0.1682596), wk =   0.0740741
        k(   27) = (   0.2351500  -0.3167824   0.2804327), wk =   0.0740741
        k(   28) = (   0.2351500  -0.1357639   0.0560865), wk =   0.0370370
        k(   29) = (   0.2351500  -0.1357639   0.1682596), wk =   0.0370370
        k(   30) = (   0.2351500  -0.1357639   0.2804327), wk =   0.0370370
        k(   31) = (   0.3919166   0.6788195   0.0560865), wk =   0.0370370
        k(   32) = (   0.3919166   0.6788195   0.1682596), wk =   0.0370370
        k(   33) = (   0.3919166   0.6788195   0.2804327), wk =   0.0370370
        k(   34) = (   0.3919166  -0.2262732   0.0560865), wk =   0.0370370
        k(   35) = (   0.3919166  -0.2262732   0.1682596), wk =   0.0370370
        k(   36) = (   0.3919166  -0.2262732   0.2804327), wk =   0.0370370

     Dense  grid:    45587 G-vectors     FFT dimensions: (  45,  45,  60)

     Largest allocated arrays     est. size (Mb)     dimensions
        Kohn-Sham Wavefunctions         1.05 Mb     (   5721,   12)
        NL pseudopotentials             0.52 Mb     (   5721,    6)
        Each V/rho on FFT grid          1.85 Mb     ( 121500)
        Each G-vector array             0.35 Mb     (  45587)
        G-vector shells                 0.02 Mb     (   2089)
     Largest temporary arrays     est. size (Mb)     dimensions
        Auxiliary wavefunctions         4.19 Mb     (   5721,   48)
        Each subspace H/S matrix        0.04 Mb     (  48,  48)
        Each <psi_i|beta_j> matrix      0.00 Mb     (      6,   12)
        Arrays for rho mixing          29.66 Mb     ( 121500,  16)

     Initial potential from superposition of free atoms

     starting charge   19.99996, renormalised to   24.00000
     Starting wfc are   12 randomized atomic wfcs

     Writing output data file CaH2_ambient.save

     total cpu time spent up to now is     1447.1 secs

     per-process dynamical memory:    29.5 Mb

     Self-consistent Calculation

     iteration #  1     ecut=    80.00 Ry     beta=0.30
     Davidson diagonalization with overlap
     ethr =  1.00E-06,  avg # of iterations =  5.0

     total cpu time spent up to now is     1480.3 secs

     total energy              =    -153.26705656 Ry
     Harris-Foulkes estimate   =    -154.41592989 Ry
     estimated scf accuracy    <       5.82677717 Ry

     iteration #  2     ecut=    80.00 Ry     beta=0.30
     Davidson diagonalization with overlap
     ethr =  1.00E-02,  avg # of iterations =  1.0

     total cpu time spent up to now is     1493.0 secs

     total energy              =    -150.91697345 Ry
     Harris-Foulkes estimate   =    -153.32924828 Ry
     estimated scf accuracy    <       3.55559169 Ry

     iteration #  3     ecut=    80.00 Ry     beta=0.30
     Davidson diagonalization with overlap
     ethr =  1.00E-02,  avg # of iterations =  2.0

     total cpu time spent up to now is     1512.7 secs

     total energy              =    -151.54023397 Ry
     Harris-Foulkes estimate   =    -151.55666797 Ry
     estimated scf accuracy    <       0.17484737 Ry

     iteration #  4     ecut=    80.00 Ry     beta=0.30
     Davidson diagonalization with overlap
     ethr =  7.29E-04,  avg # of iterations =  1.2

     total cpu time spent up to now is     1526.9 secs

     total energy              =    -151.53814705 Ry
     Harris-Foulkes estimate   =    -151.54415004 Ry
     estimated scf accuracy    <       0.10408184 Ry

     iteration #  5     ecut=    80.00 Ry     beta=0.30
     Davidson diagonalization with overlap
     ethr =  4.34E-04,  avg # of iterations =  2.0

     total cpu time spent up to now is     1541.6 secs

     total energy              =    -151.54641574 Ry
     Harris-Foulkes estimate   =    -151.54646299 Ry
     estimated scf accuracy    <       0.00358301 Ry

     iteration #  6     ecut=    80.00 Ry     beta=0.30
     Davidson diagonalization with overlap
     ethr =  1.49E-05,  avg # of iterations =  2.1

     total cpu time spent up to now is     1555.3 secs

     total energy              =    -151.54683187 Ry
     Harris-Foulkes estimate   =    -151.54661118 Ry
     estimated scf accuracy    <       0.00209649 Ry

     iteration #  7     ecut=    80.00 Ry     beta=0.30
     Davidson diagonalization with overlap
     ethr =  8.74E-06,  avg # of iterations =  1.5

     total cpu time spent up to now is     1569.0 secs

     total energy              =    -151.54670191 Ry
     Harris-Foulkes estimate   =    -151.54692490 Ry
     estimated scf accuracy    <       0.00034751 Ry

     iteration #  8     ecut=    80.00 Ry     beta=0.30
     Davidson diagonalization with overlap
     ethr =  1.45E-06,  avg # of iterations =  2.0

     total cpu time spent up to now is     1586.8 secs

     total energy              =    -151.54675231 Ry
     Harris-Foulkes estimate   =    -151.54674767 Ry
     estimated scf accuracy    <       0.00000750 Ry

     iteration #  9     ecut=    80.00 Ry     beta=0.30
     Davidson diagonalization with overlap
     ethr =  3.12E-08,  avg # of iterations =  3.0

     total cpu time spent up to now is     1607.0 secs

     total energy              =    -151.54674282 Ry
     Harris-Foulkes estimate   =    -151.54676539 Ry
     estimated scf accuracy    <       0.00003976 Ry

     iteration # 10     ecut=    80.00 Ry     beta=0.30
     Davidson diagonalization with overlap
     ethr =  3.12E-08,  avg # of iterations =  3.0

     total cpu time spent up to now is     1626.3 secs

     total energy              =    -151.54674904 Ry
     Harris-Foulkes estimate   =    -151.54674908 Ry
     estimated scf accuracy    <       0.00000018 Ry

     iteration # 11     ecut=    80.00 Ry     beta=0.30
     Davidson diagonalization with overlap
     ethr =  7.30E-10,  avg # of iterations =  2.0

     total cpu time spent up to now is     1642.4 secs

     total energy              =    -151.54674905 Ry
     Harris-Foulkes estimate   =    -151.54674906 Ry
     estimated scf accuracy    <       0.00000004 Ry

     iteration # 12     ecut=    80.00 Ry     beta=0.30
     Davidson diagonalization with overlap
     ethr =  1.49E-10,  avg # of iterations =  2.0

     total cpu time spent up to now is     1656.3 secs

     End of self-consistent calculation

          k = 0.0784 0.1358 0.0561 (  5706 PWs)   bands (ev):

   -34.5249 -34.4716 -16.2063 -15.9073 -15.9022 -15.8949 -15.8365 -15.8135
    -0.0963   2.8434   4.3881   6.0909

          k = 0.0784 0.1358 0.1683 (  5705 PWs)   bands (ev):

   -34.5178 -34.4786 -16.1719 -15.9560 -15.8934 -15.8848 -15.8343 -15.8245
     0.1824   2.1830   4.9412   6.0860

          k = 0.0784 0.1358 0.2804 (  5703 PWs)   bands (ev):

   -34.5051 -34.4912 -16.1097 -16.0320 -15.8708 -15.8662 -15.8472 -15.8434
     0.7055   1.4062   5.5328   5.9416

          k = 0.0784 0.3168 0.0561 (  5705 PWs)   bands (ev):

   -34.5111 -34.4736 -16.1547 -15.9731 -15.9484 -15.9255 -15.8864 -15.8208
     0.8135   3.1887   4.3902   4.6348

          k = 0.0784 0.3168 0.1683 (  5703 PWs)   bands (ev):

   -34.5059 -34.4786 -16.1496 -16.0192 -15.9350 -15.9102 -15.8629 -15.8342
     1.0625   2.7590   4.5092   4.7335

          k = 0.0784 0.3168 0.2804 (  5694 PWs)   bands (ev):

   -34.4971 -34.4870 -16.1266 -16.0807 -15.8993 -15.8861 -15.8660 -15.8546
     1.5265   2.1341   4.6896   4.7846

          k = 0.0784 0.4978 0.0561 (  5703 PWs)   bands (ev):

   -34.4979 -34.4781 -16.1034 -16.0173 -15.9997 -15.9395 -15.9294 -15.8263
     2.1420   2.8342   3.7261   4.4188

          k = 0.0784 0.4978 0.1683 (  5688 PWs)   bands (ev):

   -34.4949 -34.4804 -16.1362 -16.0678 -15.9618 -15.9186 -15.8912 -15.8409
     2.3382   2.9737   3.6755   4.1095

          k = 0.0784 0.4978 0.2804 (  5684 PWs)   bands (ev):

   -34.4901 -34.4850 -16.1446 -16.1200 -15.9178 -15.8898 -15.8840 -15.8610
     2.6842   3.0175   3.5994   3.7968

          k = 0.0784-0.4073 0.0561 (  5708 PWs)   bands (ev):

   -34.5035 -34.4759 -16.1244 -16.0046 -15.9755 -15.9369 -15.9110 -15.8243
     1.4521   3.2272   3.9791   4.4148

          k = 0.0784-0.4073 0.1683 (  5704 PWs)   bands (ev):

   -34.4997 -34.4795 -16.1405 -16.0501 -15.9525 -15.9174 -15.8792 -15.8384
     1.6783   3.0616   3.9780   4.3462

          k = 0.0784-0.4073 0.2804 (  5685 PWs)   bands (ev):

   -34.4928 -34.4855 -16.1375 -16.1054 -15.9113 -15.8903 -15.8762 -15.8587
     2.0940   2.6144   4.1104   4.2678

          k = 0.0784-0.2263 0.0561 (  5707 PWs)   bands (ev):

   -34.5189 -34.4722 -16.1839 -15.9359 -15.9235 -15.9094 -15.8601 -15.8170
     0.2830   3.0155   4.3937   5.3701

          k = 0.0784-0.2263 0.1683 (  5713 PWs)   bands (ev):

   -34.5127 -34.4787 -16.1613 -15.9844 -15.9131 -15.8980 -15.8470 -15.8293
     0.5496   2.4360   4.7720   5.4123

          k = 0.0784-0.2263 0.2804 (  5706 PWs)   bands (ev):

   -34.5017 -34.4893 -16.1164 -16.0537 -15.8842 -15.8772 -15.8553 -15.8495
     1.0491   1.7141   5.1607   5.3846

          k = 0.0784-0.0453 0.0561 (  5703 PWs)   bands (ev):

   -34.5280 -34.4715 -16.2183 -15.8926 -15.8898 -15.8871 -15.8210 -15.8117
    -0.2940   2.7404   4.3836   6.5957

          k = 0.0784-0.0453 0.1683 (  5720 PWs)   bands (ev):

   -34.5209 -34.4794 -16.1782 -15.9407 -15.8812 -15.8770 -15.8264 -15.8218
    -0.0090   2.0455   5.0281   6.5487

          k = 0.0784-0.0453 0.2804 (  5721 PWs)   bands (ev):

   -34.5079 -34.4926 -16.1067 -16.0203 -15.8625 -15.8596 -15.8419 -15.8394
     0.5258   1.2439   5.7484   6.3008

          k = 0.2351 0.4073 0.0561 (  5685 PWs)   bands (ev):

   -34.4975 -34.4776 -16.0999 -16.0118 -15.9808 -15.9649 -15.9116 -15.8473
     1.8696   3.2897   3.6660   4.4414

          k = 0.2351 0.4073 0.1683 (  5696 PWs)   bands (ev):

   -34.4949 -34.4808 -16.1248 -16.0646 -15.9665 -15.9227 -15.8746 -15.8640
     2.0794   3.2144   3.7863   4.2293

          k = 0.2351 0.4073 0.2804 (  5681 PWs)   bands (ev):

   -34.4898 -34.4850 -16.1330 -16.1117 -15.9366 -15.9049 -15.8722 -15.8597
     2.4573   2.9025   3.9533   4.0783

          k = 0.2351 0.5883 0.0561 (  5688 PWs)   bands (ev):

   -34.4916 -34.4813 -16.0742 -16.0243 -16.0054 -15.9551 -15.9305 -15.8554
     2.4637   3.0473   3.3855   4.4696

          k = 0.2351 0.5883 0.1683 (  5680 PWs)   bands (ev):

   -34.4899 -34.4827 -16.1121 -16.0787 -15.9833 -15.9110 -15.8894 -15.8711
     2.6436   3.1648   3.4665   4.1704

          k = 0.2351 0.5883 0.2804 (  5674 PWs)   bands (ev):

   -34.4873 -34.4849 -16.1317 -16.1199 -15.9497 -15.9122 -15.8710 -15.8617
     2.9500   3.2073   3.5913   3.8110

          k = 0.2351-0.3168 0.0561 (  5697 PWs)   bands (ev):

   -34.5044 -34.4753 -16.1290 -15.9918 -15.9657 -15.9502 -15.8961 -15.8337
     1.2975   3.2751   4.1385   4.4149

          k = 0.2351-0.3168 0.1683 (  5703 PWs)   bands (ev):

   -34.5005 -34.4795 -16.1385 -16.0435 -15.9454 -15.9252 -15.8674 -15.8480
     1.5296   3.0089   4.2175   4.3891

          k = 0.2351-0.3168 0.2804 (  5702 PWs)   bands (ev):

   -34.4937 -34.4862 -16.1315 -16.0980 -15.9165 -15.8956 -15.8702 -15.8578
     1.9578   2.5019   4.3401   4.4040

          k = 0.2351-0.1358 0.0561 (  5705 PWs)   bands (ev):

   -34.5164 -34.4723 -16.1738 -15.9546 -15.9297 -15.9101 -15.8757 -15.8150
     0.4650   3.0838   4.3923   5.0782

          k = 0.2351-0.1358 0.1683 (  5709 PWs)   bands (ev):

   -34.5104 -34.4785 -16.1573 -15.9974 -15.9250 -15.8974 -15.8567 -15.8278
     0.7256   2.5512   4.6788   5.1416

          k = 0.2351-0.1358 0.2804 (  5709 PWs)   bands (ev):

   -34.5004 -34.4885 -16.1205 -16.0641 -15.8910 -15.8754 -15.8635 -15.8500
     1.2132   1.8596   4.9828   5.1493

          k = 0.3919 0.6788 0.0561 (  5698 PWs)   bands (ev):

   -34.4946 -34.4797 -16.0882 -16.0125 -16.0123 -15.9466 -15.9336 -15.8410
     2.5162   2.6922   3.6014   4.4459

          k = 0.3919 0.6788 0.1683 (  5677 PWs)   bands (ev):

   -34.4918 -34.4815 -16.1249 -16.0734 -15.9734 -15.9143 -15.8943 -15.8545
     2.6842   2.8656   3.6209   4.1122

          k = 0.3919 0.6788 0.2804 (  5687 PWs)   bands (ev):

   -34.4887 -34.4850 -16.1391 -16.1207 -15.9364 -15.9017 -15.8772 -15.8605
     2.9691   3.0804   3.5900   3.6976

          k = 0.3919-0.2263 0.0561 (  5708 PWs)   bands (ev):

   -34.5015 -34.4765 -16.1158 -16.0149 -15.9875 -15.9313 -15.9252 -15.8200
     1.7457   3.0726   3.8241   4.4097

          k = 0.3919-0.2263 0.1683 (  5689 PWs)   bands (ev):

   -34.4976 -34.4794 -16.1411 -16.0597 -15.9563 -15.9165 -15.8870 -15.8350
     1.9603   3.0919   3.7427   4.2223

          k = 0.3919-0.2263 0.2804 (  5678 PWs)   bands (ev):

   -34.4915 -34.4849 -16.1437 -16.1146 -15.9064 -15.8908 -15.8802 -15.8610
     2.3502   2.8149   3.8136   4.0306

!    total energy              =    -151.54674905 Ry
     Harris-Foulkes estimate   =    -151.54674905 Ry
     estimated scf accuracy    <          7.1E-09 Ry

     The total energy is the sum of the following terms:

     one-electron contribution =     -57.38898015 Ry
     hartree contribution      =      32.68862651 Ry
     xc contribution           =     -23.32817965 Ry
     ewald contribution        =    -103.51821576 Ry

     convergence has been achieved in  12 iterations

     Forces acting on atoms (Ry/au):

     atom    1 type  2   force =     0.00000000   -0.00000000   -0.00000000
     atom    2 type  2   force =    -0.00000000   -0.00000000    0.00000000
     atom    3 type  1   force =    -0.00000000    0.00000000   -0.00000000
     atom    4 type  1   force =    -0.00000000    0.00000000    0.00000000
     atom    5 type  1   force =     0.00000000    0.00000000    0.00000000
     atom    6 type  1   force =    -0.00000000    0.00000000    0.00000000

     Total force =     0.000000     Total SCF correction =     0.000000


     entering subroutine stress ...

          total   stress  (Ry/bohr**3)                   (kbar)     P=    8.44
   0.00005188  -0.00000000   0.00000000          7.63     -0.00      0.00
  -0.00000000   0.00005188   0.00000000         -0.00      7.63      0.00
  -0.00000000   0.00000000   0.00006845         -0.00      0.00     10.07


     Writing output data file CaH2_ambient.save

     init_run     :     41.73s CPU     42.23s WALL (       2 calls)
     electrons    :    866.18s CPU    883.57s WALL (      10 calls)
     update_pot   :    324.31s CPU    328.84s WALL (       8 calls)
     forces       :    127.64s CPU    128.87s WALL (      10 calls)
     stress       :    274.50s CPU    278.47s WALL (      10 calls)

     Called by init_run:
     wfcinit      :     10.19s CPU     10.44s WALL (       2 calls)
     potinit      :     14.33s CPU     14.49s WALL (       2 calls)

     Called by electrons:
     c_bands      :    704.80s CPU    717.89s WALL (      79 calls)
     sum_band     :    136.86s CPU    140.09s WALL (      79 calls)
     v_of_rho     :     13.28s CPU     13.64s WALL (      89 calls)
     mix_rho      :     12.12s CPU     12.73s WALL (      79 calls)

     Called by c_bands:
     init_us_2    :     19.59s CPU     21.13s WALL (    6480 calls)
     cegterg      :    694.53s CPU    703.49s WALL (    2844 calls)

     Called by *egterg:
     h_psi        :    574.17s CPU    581.17s WALL (    9004 calls)
     g_psi        :      4.08s CPU      4.18s WALL (    6088 calls)
     cdiaghg      :      4.04s CPU      4.15s WALL (    8644 calls)

     Called by h_psi:
     add_vuspsi   :      8.38s CPU      8.44s WALL (    9004 calls)

     General routines
     calbec       :      8.99s CPU      9.22s WALL (    9724 calls)
     fft          :      3.82s CPU      3.85s WALL (    1057 calls)
     ffts         :      5.30s CPU      5.36s WALL (    1445 calls)
     fftw         :    545.99s CPU    551.62s WALL (  216398 calls)
     davcio       :      2.15s CPU      6.54s WALL (    9324 calls)


     PWSCF        : 27m15.62s CPU    27m43.50s WALL


   This run was terminated on:  15:11:16   3Jun2014            

=------------------------------------------------------------------------------=
   JOB DONE.
=------------------------------------------------------------------------------=
