
     Program PWSCF v.5.0.2 (svn rev. 9392) starts on  3Jun2014 at 15:11:16 

     This program is part of the open-source Quantum ESPRESSO suite
     for quantum simulation of materials; please cite
         "P. Giannozzi et al., J. Phys.:Condens. Matter 21 395502 (2009);
          URL http://www.quantum-espresso.org", 
     in publications or presentations arising from this work. More details at
     http://www.quantum-espresso.org/quote.php

     Serial version

     Current dimensions of program PWSCF are:
     Max number of different atomic species (ntypx) = 10
     Max number of k-points (npk) =  40000
     Max angular momentum in pseudopotentials (lmaxx) =  3
     Waiting for input...
     Reading input from standard input

     G-vector sticks info
     --------------------
     sticks:   dense  smooth     PW     G-vecs:    dense   smooth      PW
     Sum        1039    1039    313                35601    35601    5799



     bravais-lattice index     =            4
     lattice parameter (alat)  =       6.8695  a.u.
     unit-cell volume          =     367.8832 (a.u.)^3
     number of atoms/cell      =            6
     number of atomic types    =            2
     number of electrons       =        24.00
     number of Kohn-Sham states=           12
     kinetic-energy cutoff     =      80.0000  Ry
     charge density cutoff     =     320.0000  Ry
     convergence threshold     =      1.0E-06
     mixing beta               =       0.3000
     number of iterations used =           16  local-TF  mixing
     Exchange-correlation      = PBE ( 1 4 3 4 0)
     EXX-fraction              =        0.00
     nstep                     =           50


     celldm(1)=   6.869500  celldm(2)=   0.000000  celldm(3)=   1.310400
     celldm(4)=   0.000000  celldm(5)=   0.000000  celldm(6)=   0.000000

     crystal axes: (cart. coord. in units of alat)
               a(1) = (   1.000000   0.000000   0.000000 )  
               a(2) = (  -0.500000   0.866025   0.000000 )  
               a(3) = (   0.000000   0.000000   1.310400 )  

     reciprocal axes: (cart. coord. in units 2 pi/alat)
               b(1) = (  1.000000  0.577350 -0.000000 )  
               b(2) = (  0.000000  1.154701  0.000000 )  
               b(3) = (  0.000000 -0.000000  0.763126 )  


     PseudoPot. # 1 for H  read from file:
     /home/ilia/espresso/pseudo/H.pbe-sp-mt.ncpp
     MD5 check sum: 7a641936b52ccecd26bd1ad87cca5aed
     Pseudo is Norm-conserving, Zval =  1.0
     Generated by old ld1 code (numerical format)
     Using radial grid of 1076 points,  0 beta functions with: 

     PseudoPot. # 2 for Ca read from file:
     /home/ilia/espresso/pseudo/Ca.pbe-sp-mt_ion2.ncpp
     MD5 check sum: 4bcd670d05521f7b178fdf0a334578ab
     Pseudo is Norm-conserving, Zval = 10.0
     Generated by old ld1 code (numerical format)
     Using radial grid of 1153 points,  1 beta functions with: 
                l(1) =   1

     atomic species   valence    mass     pseudopotential
        H              1.00     1.00700     H ( 1.00)
        Ca            10.00    40.07800     Ca( 1.00)

     24 Sym. Ops., with inversion, found (12 have fractional translation)



   Cartesian axes

     site n.     atom                  positions (alat units)
         1           Ca  tau(   1) = (   0.0000000   0.5773503   0.3276000  )
         2           Ca  tau(   2) = (   0.5000000   0.2886751   0.9828000  )
         3           H   tau(   3) = (   0.0000000   0.5773503   0.9828000  )
         4           H   tau(   4) = (   0.5000000   0.2886751   0.3276000  )
         5           H   tau(   5) = (   0.0000000   0.0000000   0.0000000  )
         6           H   tau(   6) = (   0.0000000   0.0000000   0.6552000  )

     number of k points=    36
                       cart. coord. in units 2pi/alat
        k(    1) = (   0.0833333   0.1443376   0.0635938), wk =   0.0370370
        k(    2) = (   0.0833333   0.1443376   0.1907814), wk =   0.0370370
        k(    3) = (   0.0833333   0.1443376   0.3179691), wk =   0.0370370
        k(    4) = (   0.0833333   0.3367877   0.0635938), wk =   0.0740741
        k(    5) = (   0.0833333   0.3367877   0.1907814), wk =   0.0740741
        k(    6) = (   0.0833333   0.3367877   0.3179691), wk =   0.0740741
        k(    7) = (   0.0833333   0.5292377   0.0635938), wk =   0.0740741
        k(    8) = (   0.0833333   0.5292377   0.1907814), wk =   0.0740741
        k(    9) = (   0.0833333   0.5292377   0.3179691), wk =   0.0740741
        k(   10) = (   0.0833333  -0.4330127   0.0635938), wk =   0.0740741
        k(   11) = (   0.0833333  -0.4330127   0.1907814), wk =   0.0740741
        k(   12) = (   0.0833333  -0.4330127   0.3179691), wk =   0.0740741
        k(   13) = (   0.0833333  -0.2405626   0.0635938), wk =   0.0740741
        k(   14) = (   0.0833333  -0.2405626   0.1907814), wk =   0.0740741
        k(   15) = (   0.0833333  -0.2405626   0.3179691), wk =   0.0740741
        k(   16) = (   0.0833333  -0.0481125   0.0635938), wk =   0.0370370
        k(   17) = (   0.0833333  -0.0481125   0.1907814), wk =   0.0370370
        k(   18) = (   0.0833333  -0.0481125   0.3179691), wk =   0.0370370
        k(   19) = (   0.2500000   0.4330127   0.0635938), wk =   0.0370370
        k(   20) = (   0.2500000   0.4330127   0.1907814), wk =   0.0370370
        k(   21) = (   0.2500000   0.4330127   0.3179691), wk =   0.0370370
        k(   22) = (   0.2500000   0.6254628   0.0635938), wk =   0.0740741
        k(   23) = (   0.2500000   0.6254628   0.1907814), wk =   0.0740741
        k(   24) = (   0.2500000   0.6254628   0.3179691), wk =   0.0740741
        k(   25) = (   0.2500000  -0.3367877   0.0635938), wk =   0.0740741
        k(   26) = (   0.2500000  -0.3367877   0.1907814), wk =   0.0740741
        k(   27) = (   0.2500000  -0.3367877   0.3179691), wk =   0.0740741
        k(   28) = (   0.2500000  -0.1443376   0.0635938), wk =   0.0370370
        k(   29) = (   0.2500000  -0.1443376   0.1907814), wk =   0.0370370
        k(   30) = (   0.2500000  -0.1443376   0.3179691), wk =   0.0370370
        k(   31) = (   0.4166667   0.7216878   0.0635938), wk =   0.0370370
        k(   32) = (   0.4166667   0.7216878   0.1907814), wk =   0.0370370
        k(   33) = (   0.4166667   0.7216878   0.3179691), wk =   0.0370370
        k(   34) = (   0.4166667  -0.2405626   0.0635938), wk =   0.0370370
        k(   35) = (   0.4166667  -0.2405626   0.1907814), wk =   0.0370370
        k(   36) = (   0.4166667  -0.2405626   0.3179691), wk =   0.0370370

     Dense  grid:    35601 G-vectors     FFT dimensions: (  40,  40,  54)

     Largest allocated arrays     est. size (Mb)     dimensions
        Kohn-Sham Wavefunctions         0.82 Mb     (   4465,   12)
        NL pseudopotentials             0.41 Mb     (   4465,    6)
        Each V/rho on FFT grid          1.32 Mb     (  86400)
        Each G-vector array             0.27 Mb     (  35601)
        G-vector shells                 0.27 Mb     (  35601)
     Largest temporary arrays     est. size (Mb)     dimensions
        Auxiliary wavefunctions         3.27 Mb     (   4465,   48)
        Each subspace H/S matrix        0.04 Mb     (  48,  48)
        Each <psi_i|beta_j> matrix      0.00 Mb     (      6,   12)
        Arrays for rho mixing          21.09 Mb     (  86400,  16)

     Initial potential from superposition of free atoms

     starting charge   19.99996, renormalised to   24.00000
     Starting wfc are   12 randomized atomic wfcs

     total cpu time spent up to now is       33.1 secs

     per-process dynamical memory:    18.0 Mb

     Self-consistent Calculation

     iteration #  1     ecut=    80.00 Ry     beta=0.30
     Davidson diagonalization with overlap
     ethr =  1.00E-02,  avg # of iterations =  2.0

     total cpu time spent up to now is       45.0 secs

     total energy              =    -153.07279251 Ry
     Harris-Foulkes estimate   =    -154.21365382 Ry
     estimated scf accuracy    <       5.60363544 Ry

     iteration #  2     ecut=    80.00 Ry     beta=0.30
     Davidson diagonalization with overlap
     ethr =  1.00E-02,  avg # of iterations =  1.0

     total cpu time spent up to now is       53.5 secs

     total energy              =    -150.83698953 Ry
     Harris-Foulkes estimate   =    -153.13636637 Ry
     estimated scf accuracy    <       3.36085036 Ry

     iteration #  3     ecut=    80.00 Ry     beta=0.30
     Davidson diagonalization with overlap
     ethr =  1.00E-02,  avg # of iterations =  2.0

     total cpu time spent up to now is       65.5 secs

     total energy              =    -151.46406444 Ry
     Harris-Foulkes estimate   =    -151.46887677 Ry
     estimated scf accuracy    <       0.12171909 Ry

     iteration #  4     ecut=    80.00 Ry     beta=0.30
     Davidson diagonalization with overlap
     ethr =  5.07E-04,  avg # of iterations =  1.2

     total cpu time spent up to now is       74.0 secs

     total energy              =    -151.46762627 Ry
     Harris-Foulkes estimate   =    -151.46640676 Ry
     estimated scf accuracy    <       0.07585957 Ry

     iteration #  5     ecut=    80.00 Ry     beta=0.30
     Davidson diagonalization with overlap
     ethr =  3.16E-04,  avg # of iterations =  2.0

     total cpu time spent up to now is       83.6 secs

     total energy              =    -151.47348455 Ry
     Harris-Foulkes estimate   =    -151.47365066 Ry
     estimated scf accuracy    <       0.00214786 Ry

     iteration #  6     ecut=    80.00 Ry     beta=0.30
     Davidson diagonalization with overlap
     ethr =  8.95E-06,  avg # of iterations =  2.1

     total cpu time spent up to now is       92.7 secs

     total energy              =    -151.47376356 Ry
     Harris-Foulkes estimate   =    -151.47362701 Ry
     estimated scf accuracy    <       0.00104735 Ry

     iteration #  7     ecut=    80.00 Ry     beta=0.30
     Davidson diagonalization with overlap
     ethr =  4.36E-06,  avg # of iterations =  2.0

     total cpu time spent up to now is      102.2 secs

     total energy              =    -151.47368567 Ry
     Harris-Foulkes estimate   =    -151.47383291 Ry
     estimated scf accuracy    <       0.00022358 Ry

     iteration #  8     ecut=    80.00 Ry     beta=0.30
     Davidson diagonalization with overlap
     ethr =  9.32E-07,  avg # of iterations =  2.0

     total cpu time spent up to now is      114.0 secs

     total energy              =    -151.47372341 Ry
     Harris-Foulkes estimate   =    -151.47372142 Ry
     estimated scf accuracy    <       0.00000279 Ry

     iteration #  9     ecut=    80.00 Ry     beta=0.30
     Davidson diagonalization with overlap
     ethr =  1.16E-08,  avg # of iterations =  2.8

     total cpu time spent up to now is      127.1 secs

     total energy              =    -151.47372133 Ry
     Harris-Foulkes estimate   =    -151.47372645 Ry
     estimated scf accuracy    <       0.00001100 Ry

     iteration # 10     ecut=    80.00 Ry     beta=0.30
     Davidson diagonalization with overlap
     ethr =  1.16E-08,  avg # of iterations =  2.0

     total cpu time spent up to now is      138.9 secs

     End of self-consistent calculation

          k = 0.0833 0.1443 0.0636 (  4433 PWs)   bands (ev):

   -31.6045 -31.4301 -13.5095 -13.0075 -12.9923 -12.8512 -12.7664 -12.7627
     1.5643   4.8269   7.1756   8.3198

          k = 0.0833 0.1443 0.1908 (  4435 PWs)   bands (ev):

   -31.5814 -31.4538 -13.4435 -12.9928 -12.9630 -12.9500 -12.7964 -12.7655
     1.9481   4.3204   7.4758   8.4049

          k = 0.0833 0.1443 0.3180 (  4455 PWs)   bands (ev):

   -31.5420 -31.4949 -13.3182 -13.1536 -12.9074 -12.8905 -12.8481 -12.8153
     2.6401   3.5004   7.9861   8.3634

          k = 0.0833 0.3368 0.0636 (  4441 PWs)   bands (ev):

   -31.5650 -31.4417 -13.4003 -13.1382 -13.0610 -12.9855 -12.8393 -12.7724
     2.6554   5.2232   6.5935   6.9560

          k = 0.0833 0.3368 0.1908 (  4446 PWs)   bands (ev):

   -31.5484 -31.4583 -13.4281 -13.1786 -13.0200 -12.9899 -12.8135 -12.7780
     2.9870   4.9640   6.7066   6.8791

          k = 0.0833 0.3368 0.3180 (  4452 PWs)   bands (ev):

   -31.5199 -31.4870 -13.4051 -13.3136 -12.9564 -12.8852 -12.8679 -12.7914
     3.5876   4.3279   6.8707   6.9496

          k = 0.0833 0.5292 0.0636 (  4457 PWs)   bands (ev):

   -31.5247 -31.4619 -13.3327 -13.1869 -13.1071 -13.0767 -12.9331 -12.7780
     4.1438   4.8981   5.5777   6.7989

          k = 0.0833 0.5292 0.1908 (  4454 PWs)   bands (ev):

   -31.5162 -31.4696 -13.4411 -13.2842 -13.0737 -12.9747 -12.8396 -12.8066
     4.4001   5.1417   5.6477   6.3446

          k = 0.0833 0.5292 0.3180 (  4444 PWs)   bands (ev):

   -31.5010 -31.4837 -13.4726 -13.4157 -12.9923 -12.9044 -12.8501 -12.7901
     4.8552   5.3526   5.6060   5.9050

          k = 0.0833-0.4330 0.0636 (  4446 PWs)   bands (ev):

   -31.5420 -31.4517 -13.3473 -13.1918 -13.0806 -13.0476 -12.8923 -12.7758
     3.3855   5.3047   5.8606   6.8539

          k = 0.0833-0.4330 0.1908 (  4453 PWs)   bands (ev):

   -31.5300 -31.4636 -13.4326 -13.2490 -13.0540 -12.9852 -12.8262 -12.7959
     3.6822   5.2870   5.9805   6.5531

          k = 0.0833-0.4330 0.3180 (  4446 PWs)   bands (ev):

   -31.5089 -31.4838 -13.4474 -13.3795 -12.9792 -12.8966 -12.8585 -12.7891
     4.2158   4.8549   6.2109   6.4016

          k = 0.0833-0.2406 0.0636 (  4445 PWs)   bands (ev):

   -31.5873 -31.4349 -13.4613 -13.0632 -13.0299 -12.9170 -12.7930 -12.7690
     2.0265   5.0258   7.0726   7.4478

          k = 0.0833-0.2406 0.1908 (  4435 PWs)   bands (ev):

   -31.5668 -31.4549 -13.4334 -13.0853 -12.9837 -12.9791 -12.8037 -12.7651
     2.3880   4.6095   7.1761   7.5724

          k = 0.0833-0.2406 0.3180 (  4447 PWs)   bands (ev):

   -31.5318 -31.4908 -13.3578 -13.2318 -12.9300 -12.8857 -12.8615 -12.8003
     3.0422   3.8556   7.4642   7.6438

          k = 0.0833-0.0481 0.0636 (  4430 PWs)   bands (ev):

   -31.6138 -31.4283 -13.5357 -12.9786 -12.9695 -12.8043 -12.7656 -12.7516
     1.3194   4.7053   7.2332   8.9760

          k = 0.0833-0.0481 0.1908 (  4422 PWs)   bands (ev):

   -31.5890 -31.4532 -13.4509 -12.9476 -12.9423 -12.9196 -12.7931 -12.7766
     1.7153   4.1596   7.6503   9.0287

          k = 0.0833-0.0481 0.3180 (  4450 PWs)   bands (ev):

   -31.5472 -31.4973 -13.2960 -13.1030 -12.8952 -12.8913 -12.8406 -12.8289
     2.4268   3.3101   8.3230   8.8787

          k = 0.2500 0.4330 0.0636 (  4434 PWs)   bands (ev):

   -31.5244 -31.4608 -13.2900 -13.2275 -13.0878 -13.0736 -12.9220 -12.8165
     3.8450   5.3470   5.5953   6.8153

          k = 0.2500 0.4330 0.1908 (  4442 PWs)   bands (ev):

   -31.5160 -31.4691 -13.3961 -13.2888 -13.1247 -12.9403 -12.8647 -12.8086
     4.1216   5.4218   5.7947   6.4454

          k = 0.2500 0.4330 0.3180 (  4447 PWs)   bands (ev):

   -31.5011 -31.4837 -13.4377 -13.3957 -13.0529 -12.9570 -12.8160 -12.7698
     4.6124   5.1692   6.0600   6.2077

          k = 0.2500 0.6255 0.0636 (  4440 PWs)   bands (ev):

   -31.5065 -31.4733 -13.2674 -13.2205 -13.1337 -13.0574 -12.9676 -12.8296
     4.4557   5.0850   5.3689   6.7890

          k = 0.2500 0.6255 0.1908 (  4450 PWs)   bands (ev):

   -31.5021 -31.4777 -13.3783 -13.3092 -13.1709 -12.9077 -12.8837 -12.8309
     4.6942   5.3140   5.5419   6.3924

          k = 0.2500 0.6255 0.3180 (  4441 PWs)   bands (ev):

   -31.4937 -31.4850 -13.4393 -13.4139 -13.0846 -12.9796 -12.7971 -12.7706
     5.1135   5.5112   5.7150   5.9273

          k = 0.2500-0.3368 0.0636 (  4442 PWs)   bands (ev):

   -31.5458 -31.4497 -13.3478 -13.1808 -13.0954 -13.0204 -12.8769 -12.7939
     3.2127   5.3231   6.0724   6.8735

          k = 0.2500-0.3368 0.1908 (  4438 PWs)   bands (ev):

   -31.5328 -31.4620 -13.4163 -13.2412 -13.0671 -12.9709 -12.8397 -12.7883
     3.5190   5.2262   6.2416   6.6144

          k = 0.2500-0.3368 0.3180 (  4444 PWs)   bands (ev):

   -31.5104 -31.4843 -13.4272 -13.3609 -13.0041 -12.9203 -12.8425 -12.7769
     4.0708   4.7353   6.4572   6.5484

          k = 0.2500-0.1443 0.0636 (  4444 PWs)   bands (ev):

   -31.5794 -31.4371 -13.4400 -13.1016 -13.0224 -12.9553 -12.8104 -12.7637
     2.2441   5.1034   7.0159   7.1184

          k = 0.2500-0.1443 0.1908 (  4445 PWs)   bands (ev):

   -31.5605 -31.4561 -13.4325 -13.1194 -12.9958 -12.9882 -12.7989 -12.7733
     2.5950   4.7372   7.0268   7.2631

          k = 0.2500-0.1443 0.3180 (  4452 PWs)   bands (ev):

   -31.5276 -31.4894 -13.3776 -13.2647 -12.9287 -12.8896 -12.8594 -12.8028
     3.2306   4.0198   7.2361   7.3628

          k = 0.4167 0.7217 0.0636 (  4450 PWs)   bands (ev):

   -31.5146 -31.4680 -13.3066 -13.1902 -13.1266 -13.0713 -12.9538 -12.8048
     4.5152   4.7488   5.5149   6.7895

          k = 0.4167 0.7217 0.1908 (  4439 PWs)   bands (ev):

   -31.5076 -31.4736 -13.4152 -13.2947 -13.1307 -12.9331 -12.8690 -12.8153
     4.7323   5.0253   5.6455   6.3483

          k = 0.4167 0.7217 0.3180 (  4442 PWs)   bands (ev):

   -31.4966 -31.4842 -13.4592 -13.4162 -13.0454 -12.9477 -12.8183 -12.7759
     5.1394   5.4029   5.7020   5.7605

          k = 0.4167-0.2406 0.0636 (  4457 PWs)   bands (ev):

   -31.5350 -31.4557 -13.3445 -13.1932 -13.0850 -13.0699 -12.9119 -12.7668
     3.7117   5.1722   5.6499   6.8232

          k = 0.4167-0.2406 0.1908 (  4465 PWs)   bands (ev):

   -31.5242 -31.4666 -13.4457 -13.2675 -13.0302 -13.0099 -12.8161 -12.8083
     3.9914   5.3303   5.6867   6.4354

          k = 0.4167-0.2406 0.3180 (  4445 PWs)   bands (ev):

   -31.5052 -31.4838 -13.4678 -13.4026 -12.9607 -12.8795 -12.8727 -12.8008
     4.4917   5.0801   5.8795   6.1533

!    total energy              =    -151.47372293 Ry
     Harris-Foulkes estimate   =    -151.47372295 Ry
     estimated scf accuracy    <       0.00000006 Ry

     The total energy is the sum of the following terms:

     one-electron contribution =     -43.98543225 Ry
     hartree contribution      =      28.58806407 Ry
     xc contribution           =     -23.69889745 Ry
     ewald contribution        =    -112.37745729 Ry

     convergence has been achieved in  10 iterations

     Forces acting on atoms (Ry/au):

     atom    1 type  2   force =     0.00000000   -0.00000000    0.00000000
     atom    2 type  2   force =     0.00000000    0.00000000    0.00000000
     atom    3 type  1   force =    -0.00000000    0.00000000    0.00000000
     atom    4 type  1   force =     0.00000000   -0.00000000   -0.00000000
     atom    5 type  1   force =    -0.00000000   -0.00000000   -0.00000000
     atom    6 type  1   force =     0.00000000    0.00000000   -0.00000000

     Total force =     0.000000     Total SCF correction =     0.000000


     entering subroutine stress ...

          total   stress  (Ry/bohr**3)                   (kbar)     P=  201.96
   0.00134506  -0.00000000   0.00000000        197.87     -0.00      0.00
  -0.00000000   0.00134506   0.00000000         -0.00    197.87      0.00
   0.00000000   0.00000000   0.00142857          0.00      0.00    210.15


     BFGS Geometry Optimization

     number of scf cycles    =   1
     number of bfgs steps    =   0

     enthalpy new            =    -151.0235754645 Ry

     new trust radius        =       0.0196557258 bohr
     new conv_thr            =       0.0000010000 Ry

     new unit-cell volume =    372.01694 a.u.^3 (    55.12722 Ang^3 )

CELL_PARAMETERS (alat=  6.86950000)
   1.003036188  -0.000000000   0.000000000
  -0.501518094   0.868654820   0.000000000
   0.000000000   0.000000000   1.317114413

ATOMIC_POSITIONS (crystal)
Ca       0.333333333   0.666666667   0.250000000
Ca       0.666666667   0.333333333   0.750000000
H        0.333333333   0.666666667   0.750000000
H        0.666666667   0.333333333   0.250000000
H       -0.000000000  -0.000000000  -0.000000000
H        0.000000000   0.000000000   0.500000000



     Writing output data file CaH2_ambient.save
     NEW-OLD atomic charge density approx. for the potential
     NEW k-points:
        k(    1) = (   0.0830811   0.1439007   0.0632696), wk =   0.0370370
        k(    2) = (   0.0830811   0.1439007   0.1898089), wk =   0.0370370
        k(    3) = (   0.0830811   0.1439007   0.3163481), wk =   0.0370370
        k(    4) = (   0.0830811   0.3357682   0.0632696), wk =   0.0740741
        k(    5) = (   0.0830811   0.3357682   0.1898089), wk =   0.0740741
        k(    6) = (   0.0830811   0.3357682   0.3163481), wk =   0.0740741
        k(    7) = (   0.0830811   0.5276357   0.0632696), wk =   0.0740741
        k(    8) = (   0.0830811   0.5276357   0.1898089), wk =   0.0740741
        k(    9) = (   0.0830811   0.5276357   0.3163481), wk =   0.0740741
        k(   10) = (   0.0830811  -0.4317020   0.0632696), wk =   0.0740741
        k(   11) = (   0.0830811  -0.4317020   0.1898089), wk =   0.0740741
        k(   12) = (   0.0830811  -0.4317020   0.3163481), wk =   0.0740741
        k(   13) = (   0.0830811  -0.2398344   0.0632696), wk =   0.0740741
        k(   14) = (   0.0830811  -0.2398344   0.1898089), wk =   0.0740741
        k(   15) = (   0.0830811  -0.2398344   0.3163481), wk =   0.0740741
        k(   16) = (   0.0830811  -0.0479669   0.0632696), wk =   0.0370370
        k(   17) = (   0.0830811  -0.0479669   0.1898089), wk =   0.0370370
        k(   18) = (   0.0830811  -0.0479669   0.3163481), wk =   0.0370370
        k(   19) = (   0.2492433   0.4317020   0.0632696), wk =   0.0370370
        k(   20) = (   0.2492433   0.4317020   0.1898089), wk =   0.0370370
        k(   21) = (   0.2492433   0.4317020   0.3163481), wk =   0.0370370
        k(   22) = (   0.2492433   0.6235695   0.0632696), wk =   0.0740741
        k(   23) = (   0.2492433   0.6235695   0.1898089), wk =   0.0740741
        k(   24) = (   0.2492433   0.6235695   0.3163481), wk =   0.0740741
        k(   25) = (   0.2492433  -0.3357682   0.0632696), wk =   0.0740741
        k(   26) = (   0.2492433  -0.3357682   0.1898089), wk =   0.0740741
        k(   27) = (   0.2492433  -0.3357682   0.3163481), wk =   0.0740741
        k(   28) = (   0.2492433  -0.1439007   0.0632696), wk =   0.0370370
        k(   29) = (   0.2492433  -0.1439007   0.1898089), wk =   0.0370370
        k(   30) = (   0.2492433  -0.1439007   0.3163481), wk =   0.0370370
        k(   31) = (   0.4154054   0.7195033   0.0632696), wk =   0.0370370
        k(   32) = (   0.4154054   0.7195033   0.1898089), wk =   0.0370370
        k(   33) = (   0.4154054   0.7195033   0.3163481), wk =   0.0370370
        k(   34) = (   0.4154054  -0.2398344   0.0632696), wk =   0.0370370
        k(   35) = (   0.4154054  -0.2398344   0.1898089), wk =   0.0370370
        k(   36) = (   0.4154054  -0.2398344   0.3163481), wk =   0.0370370
     extrapolated charge   24.22224, renormalised to   24.00000

     total cpu time spent up to now is      224.1 secs

     per-process dynamical memory:    23.0 Mb

     Self-consistent Calculation

     iteration #  1     ecut=    80.00 Ry     beta=0.30
     Davidson diagonalization with overlap
     ethr =  1.00E-06,  avg # of iterations =  3.2

     total cpu time spent up to now is      237.6 secs

     total energy              =    -151.47753500 Ry
     Harris-Foulkes estimate   =    -151.23020170 Ry
     estimated scf accuracy    <       0.00259473 Ry

     iteration #  2     ecut=    80.00 Ry     beta=0.30
     Davidson diagonalization with overlap
     ethr =  1.08E-05,  avg # of iterations =  2.0

     total cpu time spent up to now is      249.3 secs

     total energy              =    -151.47927301 Ry
     Harris-Foulkes estimate   =    -151.47929252 Ry
     estimated scf accuracy    <       0.00009653 Ry

     iteration #  3     ecut=    80.00 Ry     beta=0.30
     Davidson diagonalization with overlap
     ethr =  4.02E-07,  avg # of iterations =  1.1

     total cpu time spent up to now is      257.6 secs

     total energy              =    -151.47923620 Ry
     Harris-Foulkes estimate   =    -151.47927536 Ry
     estimated scf accuracy    <       0.00006008 Ry

     iteration #  4     ecut=    80.00 Ry     beta=0.30
     Davidson diagonalization with overlap
     ethr =  2.50E-07,  avg # of iterations =  2.1

     total cpu time spent up to now is      268.8 secs

     total energy              =    -151.47924949 Ry
     Harris-Foulkes estimate   =    -151.47924950 Ry
     estimated scf accuracy    <       0.00000204 Ry

     iteration #  5     ecut=    80.00 Ry     beta=0.30
     Davidson diagonalization with overlap
     ethr =  8.48E-09,  avg # of iterations =  2.0

     total cpu time spent up to now is      277.1 secs

     End of self-consistent calculation

          k = 0.0831 0.1439 0.0633 (  4433 PWs)   bands (ev):

   -31.7417 -31.5754 -13.6362 -13.1462 -13.1313 -12.9969 -12.9141 -12.9138
     1.4765   4.7316   7.0379   8.2096

          k = 0.0831 0.1439 0.1898 (  4435 PWs)   bands (ev):

   -31.7197 -31.5980 -13.5718 -13.1338 -13.1037 -13.0914 -12.9430 -12.9152
     1.8552   4.2146   7.3526   8.2909

          k = 0.0831 0.1439 0.3163 (  4455 PWs)   bands (ev):

   -31.6821 -31.6372 -13.4499 -13.2902 -13.0497 -13.0344 -12.9927 -12.9625
     2.5392   3.3932   7.8680   8.2457

          k = 0.0831 0.3358 0.0633 (  4441 PWs)   bands (ev):

   -31.7039 -31.5863 -13.5302 -13.2726 -13.1980 -13.1263 -12.9880 -12.9202
     2.5578   5.1230   6.4943   6.8317

          k = 0.0831 0.3358 0.1898 (  4446 PWs)   bands (ev):

   -31.6881 -31.6023 -13.5556 -13.3128 -13.1590 -13.1308 -12.9599 -12.9281
     2.8857   4.8536   6.6009   6.7702

          k = 0.0831 0.3358 0.3163 (  4452 PWs)   bands (ev):

   -31.6610 -31.6296 -13.5324 -13.4435 -13.0972 -13.0297 -13.0133 -12.9409
     3.4804   4.2155   6.7632   6.8425

          k = 0.0831 0.5276 0.0633 (  4457 PWs)   bands (ev):

   -31.6656 -31.6056 -13.4623 -13.3220 -13.2445 -13.2132 -13.0783 -12.9258
     4.0391   4.7910   5.4857   6.6836

          k = 0.0831 0.5276 0.1898 (  4454 PWs)   bands (ev):

   -31.6575 -31.6130 -13.5666 -13.4152 -13.2108 -13.1171 -12.9868 -12.9545
     4.2933   5.0303   5.5486   6.2343

          k = 0.0831 0.5276 0.3163 (  4444 PWs)   bands (ev):

   -31.6429 -31.6263 -13.5969 -13.5419 -13.1319 -13.0475 -12.9977 -12.9401
     4.7448   5.2328   5.5041   5.7981

          k = 0.0831-0.4317 0.0633 (  4446 PWs)   bands (ev):

   -31.6820 -31.5959 -13.4780 -13.3251 -13.2175 -13.1861 -13.0390 -12.9236
     3.2834   5.1999   5.7665   6.7352

          k = 0.0831-0.4317 0.1898 (  4453 PWs)   bands (ev):

   -31.6706 -31.6073 -13.5590 -13.3810 -13.1917 -13.1269 -12.9730 -12.9449
     3.5772   5.1747   5.8801   6.4442

          k = 0.0831-0.4317 0.3163 (  4446 PWs)   bands (ev):

   -31.6505 -31.6265 -13.5728 -13.5070 -13.1193 -13.0401 -13.0054 -12.9390
     4.1061   4.7405   6.1048   6.2952

          k = 0.0831-0.2398 0.0633 (  4445 PWs)   bands (ev):

   -31.7253 -31.5800 -13.5895 -13.2001 -13.1678 -13.0602 -12.9432 -12.9168
     1.9341   4.9282   6.9410   7.3444

          k = 0.0831-0.2398 0.1898 (  4435 PWs)   bands (ev):

   -31.7057 -31.5990 -13.5615 -13.2229 -13.1243 -13.1191 -12.9502 -12.9154
     2.2912   4.5012   7.0592   7.4654

          k = 0.0831-0.2398 0.3163 (  4447 PWs)   bands (ev):

   -31.6723 -31.6332 -13.4874 -13.3649 -13.0716 -13.0306 -13.0057 -12.9488
     2.9383   3.7458   7.3525   7.5329

          k = 0.0831-0.0480 0.0633 (  4430 PWs)   bands (ev):

   -31.7506 -31.5737 -13.6615 -13.1182 -13.1094 -12.9518 -12.9133 -12.9029
     1.2343   4.6115   7.0920   8.8587

          k = 0.0831-0.0480 0.1898 (  4422 PWs)   bands (ev):

   -31.7269 -31.5974 -13.5792 -13.0887 -13.0833 -13.0645 -12.9397 -12.9252
     1.6246   4.0553   7.5227   8.9072

          k = 0.0831-0.0480 0.3163 (  4450 PWs)   bands (ev):

   -31.6871 -31.6396 -13.4290 -13.2422 -13.0379 -13.0345 -12.9854 -12.9748
     2.3279   3.2045   8.1993   8.7538

          k = 0.2492 0.4317 0.0633 (  4434 PWs)   bands (ev):

   -31.6652 -31.6045 -13.4229 -13.3583 -13.2253 -13.2119 -13.0671 -12.9632
     3.7410   5.2429   5.4970   6.7006

          k = 0.2492 0.4317 0.1898 (  4442 PWs)   bands (ev):

   -31.6572 -31.6125 -13.5239 -13.4191 -13.2597 -13.0843 -13.0094 -12.9578
     4.0149   5.3096   5.6924   6.3369

          k = 0.2492 0.4317 0.3163 (  4447 PWs)   bands (ev):

   -31.6430 -31.6264 -13.5634 -13.5226 -13.1903 -13.0982 -12.9647 -12.9204
     4.5012   5.0531   5.9529   6.1013

          k = 0.2492 0.6236 0.0633 (  4440 PWs)   bands (ev):

   -31.6482 -31.6165 -13.3981 -13.3538 -13.2704 -13.1964 -13.1109 -12.9760
     4.3521   4.9800   5.2672   6.6773

          k = 0.2492 0.6236 0.1898 (  4450 PWs)   bands (ev):

   -31.6440 -31.6207 -13.5063 -13.4394 -13.3039 -13.0528 -13.0282 -12.9791
     4.5887   5.2036   5.4346   6.2837

          k = 0.2492 0.6236 0.3163 (  4441 PWs)   bands (ev):

   -31.6359 -31.6276 -13.5648 -13.5402 -13.2208 -13.1200 -12.9467 -12.9213
     5.0039   5.3926   5.6053   5.8209

          k = 0.2492-0.3358 0.0633 (  4442 PWs)   bands (ev):

   -31.6856 -31.5940 -13.4792 -13.3135 -13.2320 -13.1602 -13.0239 -12.9412
     3.1113   5.2208   5.9749   6.7541

          k = 0.2492-0.3358 0.1898 (  4438 PWs)   bands (ev):

   -31.6732 -31.6057 -13.5438 -13.3731 -13.2042 -13.1134 -12.9852 -12.9381
     3.4145   5.1144   6.1399   6.5052

          k = 0.2492-0.3358 0.3163 (  4444 PWs)   bands (ev):

   -31.6519 -31.6270 -13.5534 -13.4890 -13.1432 -13.0629 -12.9898 -12.9271
     3.9611   4.6208   6.3510   6.4421

          k = 0.2492-0.1439 0.0633 (  4444 PWs)   bands (ev):

   -31.7177 -31.5821 -13.5687 -13.2372 -13.1604 -13.0972 -12.9601 -12.9118
     2.1498   5.0049   6.8892   7.0146

          k = 0.2492-0.1439 0.1898 (  4445 PWs)   bands (ev):

   -31.6997 -31.6001 -13.5603 -13.2558 -13.1365 -13.1276 -12.9456 -12.9236
     2.4965   4.6282   6.9125   7.1574

          k = 0.2492-0.1439 0.3163 (  4452 PWs)   bands (ev):

   -31.6683 -31.6320 -13.5062 -13.3965 -13.0703 -13.0348 -13.0037 -12.9516
     3.1256   3.9091   7.1262   7.2537

          k = 0.4154 0.7195 0.0633 (  4450 PWs)   bands (ev):

   -31.6559 -31.6114 -13.4365 -13.3247 -13.2635 -13.2090 -13.0979 -12.9518
     4.4115   4.6416   5.4185   6.6764

          k = 0.4154 0.7195 0.1898 (  4439 PWs)   bands (ev):

   -31.6492 -31.6167 -13.5416 -13.4254 -13.2654 -13.0774 -13.0144 -12.9636
     4.6273   4.9132   5.5425   6.2385

          k = 0.4154 0.7195 0.3163 (  4442 PWs)   bands (ev):

   -31.6387 -31.6269 -13.5839 -13.5425 -13.1832 -13.0893 -12.9670 -12.9263
     5.0306   5.2826   5.5922   5.6577

          k = 0.4154-0.2398 0.0633 (  4457 PWs)   bands (ev):

   -31.6755 -31.5997 -13.4743 -13.3276 -13.2231 -13.2063 -13.0580 -12.9150
     3.6082   5.0637   5.5601   6.7060

          k = 0.4154-0.2398 0.1898 (  4465 PWs)   bands (ev):

   -31.6651 -31.6101 -13.5713 -13.3990 -13.1681 -13.1517 -12.9654 -12.9548
     3.8855   5.2154   5.5904   6.3258

          k = 0.4154-0.2398 0.3163 (  4445 PWs)   bands (ev):

   -31.6469 -31.6265 -13.5923 -13.5292 -13.1013 -13.0232 -13.0197 -12.9505
     4.3817   4.9653   5.7739   6.0466

!    total energy              =    -151.47924958 Ry
     Harris-Foulkes estimate   =    -151.47924956 Ry
     estimated scf accuracy    <       0.00000076 Ry

     The total energy is the sum of the following terms:

     one-electron contribution =     -44.60728425 Ry
     hartree contribution      =      28.77112664 Ry
     xc contribution           =     -23.68002544 Ry
     ewald contribution        =    -111.96306653 Ry

     convergence has been achieved in   5 iterations

     Forces acting on atoms (Ry/au):

     atom    1 type  2   force =    -0.00000000   -0.00000000    0.00000000
     atom    2 type  2   force =     0.00000000    0.00000000    0.00000000
     atom    3 type  1   force =    -0.00000000   -0.00000000   -0.00000000
     atom    4 type  1   force =     0.00000000    0.00000000    0.00000000
     atom    5 type  1   force =     0.00000000    0.00000000    0.00000000
     atom    6 type  1   force =    -0.00000000   -0.00000000    0.00000000

     Total force =     0.000000     Total SCF correction =     0.000000


     entering subroutine stress ...

          total   stress  (Ry/bohr**3)                   (kbar)     P=  188.40
   0.00125524   0.00000000   0.00000000        184.65      0.00      0.00
   0.00000000   0.00125524   0.00000000          0.00    184.65      0.00
   0.00000000   0.00000000   0.00133169          0.00      0.00    195.90


     number of scf cycles    =   2
     number of bfgs steps    =   1

     enthalpy old            =    -151.0235754645 Ry
     enthalpy new            =    -151.0240439454 Ry

     CASE: enthalpy_new < enthalpy_old

     new trust radius        =       0.0190025984 bohr
     new conv_thr            =       0.0000000100 Ry

     new unit-cell volume =    374.99189 a.u.^3 (    55.56806 Ang^3 )

CELL_PARAMETERS (alat=  6.86950000)
   1.004567496  -0.000000000   0.000000000
  -0.502283748   0.869980971   0.000000000
   0.000000000   0.000000000   1.323602626

ATOMIC_POSITIONS (crystal)
Ca       0.333333333   0.666666667   0.250000000
Ca       0.666666667   0.333333333   0.750000000
H        0.333333333   0.666666667   0.750000000
H        0.666666667   0.333333333   0.250000000
H       -0.000000000  -0.000000000  -0.000000000
H       -0.000000000  -0.000000000   0.500000000



     Writing output data file CaH2_ambient.save
     NEW-OLD atomic charge density approx. for the potential
     NEW k-points:
        k(    1) = (   0.0829544   0.1436813   0.0629595), wk =   0.0370370
        k(    2) = (   0.0829544   0.1436813   0.1888784), wk =   0.0370370
        k(    3) = (   0.0829544   0.1436813   0.3147974), wk =   0.0370370
        k(    4) = (   0.0829544   0.3352564   0.0629595), wk =   0.0740741
        k(    5) = (   0.0829544   0.3352564   0.1888784), wk =   0.0740741
        k(    6) = (   0.0829544   0.3352564   0.3147974), wk =   0.0740741
        k(    7) = (   0.0829544   0.5268314   0.0629595), wk =   0.0740741
        k(    8) = (   0.0829544   0.5268314   0.1888784), wk =   0.0740741
        k(    9) = (   0.0829544   0.5268314   0.3147974), wk =   0.0740741
        k(   10) = (   0.0829544  -0.4310439   0.0629595), wk =   0.0740741
        k(   11) = (   0.0829544  -0.4310439   0.1888784), wk =   0.0740741
        k(   12) = (   0.0829544  -0.4310439   0.3147974), wk =   0.0740741
        k(   13) = (   0.0829544  -0.2394688   0.0629595), wk =   0.0740741
        k(   14) = (   0.0829544  -0.2394688   0.1888784), wk =   0.0740741
        k(   15) = (   0.0829544  -0.2394688   0.3147974), wk =   0.0740741
        k(   16) = (   0.0829544  -0.0478938   0.0629595), wk =   0.0370370
        k(   17) = (   0.0829544  -0.0478938   0.1888784), wk =   0.0370370
        k(   18) = (   0.0829544  -0.0478938   0.3147974), wk =   0.0370370
        k(   19) = (   0.2488633   0.4310439   0.0629595), wk =   0.0370370
        k(   20) = (   0.2488633   0.4310439   0.1888784), wk =   0.0370370
        k(   21) = (   0.2488633   0.4310439   0.3147974), wk =   0.0370370
        k(   22) = (   0.2488633   0.6226190   0.0629595), wk =   0.0740741
        k(   23) = (   0.2488633   0.6226190   0.1888784), wk =   0.0740741
        k(   24) = (   0.2488633   0.6226190   0.3147974), wk =   0.0740741
        k(   25) = (   0.2488633  -0.3352564   0.0629595), wk =   0.0740741
        k(   26) = (   0.2488633  -0.3352564   0.1888784), wk =   0.0740741
        k(   27) = (   0.2488633  -0.3352564   0.3147974), wk =   0.0740741
        k(   28) = (   0.2488633  -0.1436813   0.0629595), wk =   0.0370370
        k(   29) = (   0.2488633  -0.1436813   0.1888784), wk =   0.0370370
        k(   30) = (   0.2488633  -0.1436813   0.3147974), wk =   0.0370370
        k(   31) = (   0.4147722   0.7184065   0.0629595), wk =   0.0370370
        k(   32) = (   0.4147722   0.7184065   0.1888784), wk =   0.0370370
        k(   33) = (   0.4147722   0.7184065   0.3147974), wk =   0.0370370
        k(   34) = (   0.4147722  -0.2394688   0.0629595), wk =   0.0370370
        k(   35) = (   0.4147722  -0.2394688   0.1888784), wk =   0.0370370
        k(   36) = (   0.4147722  -0.2394688   0.3147974), wk =   0.0370370
     extrapolated charge   24.15867, renormalised to   24.00000

     total cpu time spent up to now is      361.8 secs

     per-process dynamical memory:    23.0 Mb

     Self-consistent Calculation

     iteration #  1     ecut=    80.00 Ry     beta=0.30
     Davidson diagonalization with overlap
     ethr =  1.00E-06,  avg # of iterations =  3.2

     total cpu time spent up to now is      375.3 secs

     total energy              =    -151.48216022 Ry
     Harris-Foulkes estimate   =    -151.30354240 Ry
     estimated scf accuracy    <       0.00133191 Ry

     iteration #  2     ecut=    80.00 Ry     beta=0.30
     Davidson diagonalization with overlap
     ethr =  5.55E-06,  avg # of iterations =  2.0

     total cpu time spent up to now is      388.7 secs

     total energy              =    -151.48304097 Ry
     Harris-Foulkes estimate   =    -151.48305181 Ry
     estimated scf accuracy    <       0.00005295 Ry

     iteration #  3     ecut=    80.00 Ry     beta=0.30
     Davidson diagonalization with overlap
     ethr =  2.21E-07,  avg # of iterations =  1.1

     total cpu time spent up to now is      397.0 secs

     total energy              =    -151.48302092 Ry
     Harris-Foulkes estimate   =    -151.48304223 Ry
     estimated scf accuracy    <       0.00003274 Ry

     iteration #  4     ecut=    80.00 Ry     beta=0.30
     Davidson diagonalization with overlap
     ethr =  1.36E-07,  avg # of iterations =  2.1

     total cpu time spent up to now is      408.1 secs

     total energy              =    -151.48302802 Ry
     Harris-Foulkes estimate   =    -151.48302801 Ry
     estimated scf accuracy    <       0.00000118 Ry

     iteration #  5     ecut=    80.00 Ry     beta=0.30
     Davidson diagonalization with overlap
     ethr =  4.91E-09,  avg # of iterations =  2.0

     total cpu time spent up to now is      416.7 secs

     total energy              =    -151.48302806 Ry
     Harris-Foulkes estimate   =    -151.48302806 Ry
     estimated scf accuracy    <       0.00000045 Ry

     iteration #  6     ecut=    80.00 Ry     beta=0.30
     Davidson diagonalization with overlap
     ethr =  1.86E-09,  avg # of iterations =  1.0

     total cpu time spent up to now is      424.9 secs

     End of self-consistent calculation

          k = 0.0830 0.1437 0.0630 (  4433 PWs)   bands (ev):

   -31.8386 -31.6787 -13.7257 -13.2434 -13.2285 -13.1001 -13.0212 -13.0187
     1.4129   4.6614   6.9259   8.1364

          k = 0.0830 0.1437 0.1889 (  4435 PWs)   bands (ev):

   -31.8174 -31.7003 -13.6623 -13.2334 -13.2026 -13.1905 -13.0466 -13.0216
     1.7868   4.1339   7.2561   8.2126

          k = 0.0830 0.1437 0.3148 (  4455 PWs)   bands (ev):

   -31.7814 -31.7381 -13.5427 -13.3866 -13.1496 -13.1359 -13.0945 -13.0668
     2.4635   3.3114   7.7788   8.1605

          k = 0.0830 0.3353 0.0630 (  4441 PWs)   bands (ev):

   -31.8021 -31.6889 -13.6219 -13.3676 -13.2943 -13.2261 -13.0937 -13.0251
     2.4887   5.0520   6.4268   6.7305

          k = 0.0830 0.3353 0.1889 (  4446 PWs)   bands (ev):

   -31.7869 -31.7043 -13.6452 -13.4077 -13.2568 -13.2303 -13.0637 -13.0351
     2.8129   4.7717   6.5247   6.6884

          k = 0.0830 0.3353 0.3148 (  4452 PWs)   bands (ev):

   -31.7608 -31.7306 -13.6217 -13.5349 -13.1963 -13.1324 -13.1162 -13.0476
     3.4015   4.1313   6.6845   6.7643

          k = 0.0830 0.5268 0.0630 (  4457 PWs)   bands (ev):

   -31.7650 -31.7073 -13.5539 -13.4177 -13.3424 -13.3088 -13.1817 -13.0309
     3.9665   4.7177   5.4217   6.5891

          k = 0.0830 0.5268 0.1889 (  4454 PWs)   bands (ev):

   -31.7573 -31.7144 -13.6551 -13.5078 -13.3073 -13.2184 -13.0919 -13.0596
     4.2181   4.9524   5.4775   6.1474

          k = 0.0830 0.5268 0.3148 (  4444 PWs)   bands (ev):

   -31.7432 -31.7273 -13.6842 -13.6308 -13.2304 -13.1488 -13.1032 -13.0474
     4.6649   5.1456   5.4296   5.7189

          k = 0.0830-0.4310 0.0630 (  4446 PWs)   bands (ev):

   -31.7809 -31.6980 -13.5703 -13.4198 -13.3144 -13.2838 -13.1434 -13.0287
     3.2120   5.1273   5.7017   6.6383

          k = 0.0830-0.4310 0.1889 (  4453 PWs)   bands (ev):

   -31.7700 -31.7090 -13.6479 -13.4744 -13.2887 -13.2275 -13.0775 -13.0509
     3.5026   5.0935   5.8090   6.3598

          k = 0.0830-0.4310 0.3148 (  4446 PWs)   bands (ev):

   -31.7506 -31.7275 -13.6608 -13.5967 -13.2180 -13.1416 -13.1102 -13.0462
     4.0262   4.6558   6.0282   6.2167

          k = 0.0830-0.2395 0.0630 (  4445 PWs)   bands (ev):

   -31.8227 -31.6830 -13.6799 -13.2964 -13.2643 -13.1617 -13.0500 -13.0216
     1.8679   4.8575   6.8338   7.2751

          k = 0.0830-0.2395 0.1889 (  4435 PWs)   bands (ev):

   -31.8039 -31.7012 -13.6517 -13.3200 -13.2237 -13.2172 -13.0538 -13.0224
     2.2207   4.4197   6.9683   7.3915

          k = 0.0830-0.2395 0.3148 (  4447 PWs)   bands (ev):

   -31.7718 -31.7342 -13.5784 -13.4587 -13.1711 -13.1335 -13.1074 -13.0545
     2.8610   3.6628   7.2691   7.4530

          k = 0.0830-0.0479 0.0630 (  4430 PWs)   bands (ev):

   -31.8472 -31.6771 -13.7504 -13.2158 -13.2070 -13.0564 -13.0177 -13.0103
     1.1722   4.5416   6.9771   8.7813

          k = 0.0830-0.0479 0.1889 (  4422 PWs)   bands (ev):

   -31.8244 -31.6998 -13.6698 -13.1876 -13.1818 -13.1671 -13.0432 -13.0303
     1.5574   3.9752   7.4222   8.8239

          k = 0.0830-0.0479 0.3148 (  4450 PWs)   bands (ev):

   -31.7862 -31.7405 -13.5230 -13.3406 -13.1381 -13.1352 -13.0873 -13.0777
     2.2530   3.1235   8.1050   8.6628

          k = 0.2489 0.4310 0.0630 (  4434 PWs)   bands (ev):

   -31.7646 -31.7062 -13.5166 -13.4506 -13.3231 -13.3098 -13.1703 -13.0678
     3.6688   5.1711   5.4299   6.6069

          k = 0.2489 0.4310 0.1889 (  4442 PWs)   bands (ev):

   -31.7569 -31.7139 -13.6137 -13.5111 -13.3545 -13.1871 -13.1124 -13.0643
     3.9396   5.2297   5.6209   6.2518

          k = 0.2489 0.4310 0.3148 (  4447 PWs)   bands (ev):

   -31.7434 -31.7274 -13.6516 -13.6118 -13.2873 -13.1985 -13.0709 -13.0281
     4.4207   4.9677   5.8759   6.0227

          k = 0.2489 0.6226 0.0630 (  4440 PWs)   bands (ev):

   -31.7482 -31.7177 -13.4906 -13.4476 -13.3672 -13.2952 -13.2128 -13.0806
     4.2806   4.9082   5.1975   6.5859

          k = 0.2489 0.6226 0.1889 (  4450 PWs)   bands (ev):

   -31.7442 -31.7218 -13.5963 -13.5311 -13.3976 -13.1565 -13.1313 -13.0850
     4.5145   5.1265   5.3595   6.1978

          k = 0.2489 0.6226 0.3148 (  4441 PWs)   bands (ev):

   -31.7364 -31.7285 -13.6528 -13.6289 -13.3172 -13.2198 -13.0537 -13.0291
     4.9248   5.3068   5.5263   5.7416

          k = 0.2489-0.3353 0.0630 (  4442 PWs)   bands (ev):

   -31.7843 -31.6962 -13.5718 -13.4072 -13.3287 -13.2591 -13.1284 -13.0460
     3.0403   5.1495   5.9085   6.6565

          k = 0.2489-0.3353 0.1889 (  4438 PWs)   bands (ev):

   -31.7725 -31.7075 -13.6333 -13.4663 -13.3005 -13.2148 -13.0886 -13.0450
     3.3401   5.0330   6.0688   6.4205

          k = 0.2489-0.3353 0.3148 (  4444 PWs)   bands (ev):

   -31.7520 -31.7280 -13.6420 -13.5791 -13.2414 -13.1640 -13.0949 -13.0344
     3.8812   4.5358   6.2745   6.3636

          k = 0.2489-0.1437 0.0630 (  4444 PWs)   bands (ev):

   -31.8154 -31.6849 -13.6596 -13.3329 -13.2568 -13.1981 -13.0666 -13.0166
     2.0826   4.9341   6.7860   6.9443

          k = 0.2489-0.1437 0.1889 (  4445 PWs)   bands (ev):

   -31.7981 -31.7023 -13.6502 -13.3523 -13.2362 -13.2251 -13.0493 -13.0308
     2.4252   4.5465   6.8246   7.0836

          k = 0.2489-0.1437 0.3148 (  4452 PWs)   bands (ev):

   -31.7679 -31.7329 -13.5965 -13.4893 -13.1698 -13.1381 -13.1054 -13.0577
     3.0477   3.8257   7.0446   7.1750

          k = 0.4148 0.7184 0.0630 (  4450 PWs)   bands (ev):

   -31.7557 -31.7128 -13.5284 -13.4195 -13.3607 -13.3063 -13.2007 -13.0566
     4.3399   4.5682   5.3520   6.5837

          k = 0.4148 0.7184 0.1889 (  4439 PWs)   bands (ev):

   -31.7492 -31.7180 -13.6307 -13.5177 -13.3603 -13.1801 -13.1183 -13.0693
     4.5535   4.8349   5.4697   6.1516

          k = 0.4148 0.7184 0.3148 (  4442 PWs)   bands (ev):

   -31.7391 -31.7278 -13.6715 -13.6312 -13.2805 -13.1898 -13.0734 -13.0339
     4.9519   5.1965   5.5129   5.5797

          k = 0.4148-0.2395 0.0630 (  4457 PWs)   bands (ev):

   -31.7746 -31.7016 -13.5661 -13.4231 -13.3215 -13.3016 -13.1621 -13.0201
     3.5362   4.9895   5.4974   6.6100

          k = 0.4148-0.2395 0.1889 (  4465 PWs)   bands (ev):

   -31.7646 -31.7117 -13.6597 -13.4921 -13.2646 -13.2528 -13.0723 -13.0586
     3.8106   5.1343   5.5209   6.2405

          k = 0.4148-0.2395 0.3148 (  4445 PWs)   bands (ev):

   -31.7471 -31.7274 -13.6798 -13.6184 -13.2001 -13.1249 -13.1247 -13.0578
     4.3019   4.8804   5.6976   5.9677

!    total energy              =    -151.48302808 Ry
     Harris-Foulkes estimate   =    -151.48302808 Ry
     estimated scf accuracy    <          2.6E-09 Ry

     The total energy is the sum of the following terms:

     one-electron contribution =     -45.04584497 Ry
     hartree contribution      =      28.90180464 Ry
     xc contribution           =     -23.66743831 Ry
     ewald contribution        =    -111.67154944 Ry

     convergence has been achieved in   6 iterations

     Forces acting on atoms (Ry/au):

     atom    1 type  2   force =    -0.00000000    0.00000000    0.00000000
     atom    2 type  2   force =     0.00000000   -0.00000000    0.00000000
     atom    3 type  1   force =    -0.00000000   -0.00000000    0.00000000
     atom    4 type  1   force =     0.00000000    0.00000000    0.00000000
     atom    5 type  1   force =     0.00000000    0.00000000    0.00000000
     atom    6 type  1   force =     0.00000000    0.00000000    0.00000000

     Total force =     0.000000     Total SCF correction =     0.000000


     entering subroutine stress ...

          total   stress  (Ry/bohr**3)                   (kbar)     P=  179.68
   0.00120407   0.00000000   0.00000000        177.12      0.00      0.00
   0.00000000   0.00120407   0.00000000          0.00    177.12      0.00
   0.00000000   0.00000000   0.00125610          0.00      0.00    184.78


     number of scf cycles    =   3
     number of bfgs steps    =   2

     enthalpy old            =    -151.0240439454 Ry
     enthalpy new            =    -151.0241822456 Ry

     CASE: enthalpy_new < enthalpy_old

     new trust radius        =       0.0066558788 bohr
     new conv_thr            =       0.0000000100 Ry

     new unit-cell volume =    375.41771 a.u.^3 (    55.63116 Ang^3 )

CELL_PARAMETERS (alat=  6.86950000)
   1.004275117   0.000000000   0.000000000
  -0.502137558   0.869727763   0.000000000
   0.000000000   0.000000000   1.325877316

ATOMIC_POSITIONS (crystal)
Ca       0.333333333   0.666666667   0.250000000
Ca       0.666666667   0.333333333   0.750000000
H        0.333333333   0.666666667   0.750000000
H        0.666666667   0.333333333   0.250000000
H       -0.000000000  -0.000000000  -0.000000000
H       -0.000000000  -0.000000000   0.500000000



     Writing output data file CaH2_ambient.save
     NEW-OLD atomic charge density approx. for the potential
     NEW k-points:
        k(    1) = (   0.0829786   0.1437231   0.0628515), wk =   0.0370370
        k(    2) = (   0.0829786   0.1437231   0.1885544), wk =   0.0370370
        k(    3) = (   0.0829786   0.1437231   0.3142573), wk =   0.0370370
        k(    4) = (   0.0829786   0.3353540   0.0628515), wk =   0.0740741
        k(    5) = (   0.0829786   0.3353540   0.1885544), wk =   0.0740741
        k(    6) = (   0.0829786   0.3353540   0.3142573), wk =   0.0740741
        k(    7) = (   0.0829786   0.5269848   0.0628515), wk =   0.0740741
        k(    8) = (   0.0829786   0.5269848   0.1885544), wk =   0.0740741
        k(    9) = (   0.0829786   0.5269848   0.3142573), wk =   0.0740741
        k(   10) = (   0.0829786  -0.4311694   0.0628515), wk =   0.0740741
        k(   11) = (   0.0829786  -0.4311694   0.1885544), wk =   0.0740741
        k(   12) = (   0.0829786  -0.4311694   0.3142573), wk =   0.0740741
        k(   13) = (   0.0829786  -0.2395386   0.0628515), wk =   0.0740741
        k(   14) = (   0.0829786  -0.2395386   0.1885544), wk =   0.0740741
        k(   15) = (   0.0829786  -0.2395386   0.3142573), wk =   0.0740741
        k(   16) = (   0.0829786  -0.0479077   0.0628515), wk =   0.0370370
        k(   17) = (   0.0829786  -0.0479077   0.1885544), wk =   0.0370370
        k(   18) = (   0.0829786  -0.0479077   0.3142573), wk =   0.0370370
        k(   19) = (   0.2489358   0.4311694   0.0628515), wk =   0.0370370
        k(   20) = (   0.2489358   0.4311694   0.1885544), wk =   0.0370370
        k(   21) = (   0.2489358   0.4311694   0.3142573), wk =   0.0370370
        k(   22) = (   0.2489358   0.6228002   0.0628515), wk =   0.0740741
        k(   23) = (   0.2489358   0.6228002   0.1885544), wk =   0.0740741
        k(   24) = (   0.2489358   0.6228002   0.3142573), wk =   0.0740741
        k(   25) = (   0.2489358  -0.3353540   0.0628515), wk =   0.0740741
        k(   26) = (   0.2489358  -0.3353540   0.1885544), wk =   0.0740741
        k(   27) = (   0.2489358  -0.3353540   0.3142573), wk =   0.0740741
        k(   28) = (   0.2489358  -0.1437231   0.0628515), wk =   0.0370370
        k(   29) = (   0.2489358  -0.1437231   0.1885544), wk =   0.0370370
        k(   30) = (   0.2489358  -0.1437231   0.3142573), wk =   0.0370370
        k(   31) = (   0.4148930   0.7186157   0.0628515), wk =   0.0370370
        k(   32) = (   0.4148930   0.7186157   0.1885544), wk =   0.0370370
        k(   33) = (   0.4148930   0.7186157   0.3142573), wk =   0.0370370
        k(   34) = (   0.4148930  -0.2395386   0.0628515), wk =   0.0370370
        k(   35) = (   0.4148930  -0.2395386   0.1885544), wk =   0.0370370
        k(   36) = (   0.4148930  -0.2395386   0.3142573), wk =   0.0370370
     extrapolated charge   24.02269, renormalised to   24.00000

     total cpu time spent up to now is      509.9 secs

     per-process dynamical memory:    23.0 Mb

     Self-consistent Calculation

     iteration #  1     ecut=    80.00 Ry     beta=0.30
     Davidson diagonalization with overlap
     ethr =  1.00E-06,  avg # of iterations =  2.0

     total cpu time spent up to now is      521.3 secs

     total energy              =    -151.48355123 Ry
     Harris-Foulkes estimate   =    -151.45792003 Ry
     estimated scf accuracy    <       0.00002658 Ry

     iteration #  2     ecut=    80.00 Ry     beta=0.30
     Davidson diagonalization with overlap
     ethr =  1.11E-07,  avg # of iterations =  2.0

     total cpu time spent up to now is      532.9 secs

     total energy              =    -151.48356832 Ry
     Harris-Foulkes estimate   =    -151.48356863 Ry
     estimated scf accuracy    <       0.00000158 Ry

     iteration #  3     ecut=    80.00 Ry     beta=0.30
     Davidson diagonalization with overlap
     ethr =  6.58E-09,  avg # of iterations =  1.3

     total cpu time spent up to now is      541.2 secs

     total energy              =    -151.48356781 Ry
     Harris-Foulkes estimate   =    -151.48356836 Ry
     estimated scf accuracy    <       0.00000093 Ry

     iteration #  4     ecut=    80.00 Ry     beta=0.30
     Davidson diagonalization with overlap
     ethr =  3.87E-09,  avg # of iterations =  2.0

     total cpu time spent up to now is      550.9 secs

     total energy              =    -151.48356798 Ry
     Harris-Foulkes estimate   =    -151.48356798 Ry
     estimated scf accuracy    <       0.00000004 Ry

     iteration #  5     ecut=    80.00 Ry     beta=0.30
     Davidson diagonalization with overlap
     ethr =  1.69E-10,  avg # of iterations =  1.4

     total cpu time spent up to now is      559.4 secs

     total energy              =    -151.48356798 Ry
     Harris-Foulkes estimate   =    -151.48356798 Ry
     estimated scf accuracy    <       0.00000002 Ry

     iteration #  6     ecut=    80.00 Ry     beta=0.30
     Davidson diagonalization with overlap
     ethr =  7.12E-11,  avg # of iterations =  2.0

     total cpu time spent up to now is      569.4 secs

     End of self-consistent calculation

          k = 0.0830 0.1437 0.0629 (  4433 PWs)   bands (ev):

   -31.8503 -31.6918 -13.7365 -13.2546 -13.2394 -13.1132 -13.0352 -13.0317
     1.4044   4.6516   6.8998   8.1319

          k = 0.0830 0.1437 0.1886 (  4435 PWs)   bands (ev):

   -31.8293 -31.7133 -13.6732 -13.2456 -13.2143 -13.2019 -13.0593 -13.0353
     1.7767   4.1200   7.2368   8.2055

          k = 0.0830 0.1437 0.3143 (  4455 PWs)   bands (ev):

   -31.7936 -31.7507 -13.5538 -13.3983 -13.1613 -13.1484 -13.1068 -13.0799
     2.4509   3.2969   7.7638   8.1492

          k = 0.0830 0.3354 0.0629 (  4441 PWs)   bands (ev):

   -31.8139 -31.7018 -13.6329 -13.3792 -13.3056 -13.2385 -13.1075 -13.0385
     2.4807   5.0443   6.4213   6.7071

          k = 0.0830 0.3354 0.1886 (  4446 PWs)   bands (ev):

   -31.7989 -31.7170 -13.6556 -13.4193 -13.2685 -13.2426 -13.0769 -13.0492
     2.8034   4.7593   6.5145   6.6750

          k = 0.0830 0.3354 0.3143 (  4452 PWs)   bands (ev):

   -31.7730 -31.7432 -13.6320 -13.5457 -13.2081 -13.1455 -13.1291 -13.0618
     3.3897   4.1176   6.6732   6.7534

          k = 0.0830 0.5270 0.0629 (  4457 PWs)   bands (ev):

   -31.7771 -31.7199 -13.5651 -13.4297 -13.3550 -13.3198 -13.1953 -13.0444
     3.9593   4.7113   5.4159   6.5670

          k = 0.0830 0.5270 0.1886 (  4454 PWs)   bands (ev):

   -31.7694 -31.7270 -13.6654 -13.5191 -13.3188 -13.2314 -13.1059 -13.0732
     4.2095   4.9443   5.4689   6.1296

          k = 0.0830 0.5270 0.3143 (  4444 PWs)   bands (ev):

   -31.7555 -31.7397 -13.6942 -13.6411 -13.2422 -13.1614 -13.1173 -13.0620
     4.6540   5.1335   5.4189   5.7068

          k = 0.0830-0.4312 0.0629 (  4446 PWs)   bands (ev):

   -31.7929 -31.7107 -13.5814 -13.4316 -13.3263 -13.2956 -13.1571 -13.0421
     3.2043   5.1207   5.6959   6.6156

          k = 0.0830-0.4312 0.1886 (  4453 PWs)   bands (ev):

   -31.7821 -31.7216 -13.6582 -13.4858 -13.3003 -13.2403 -13.0911 -13.0648
     3.4935   5.0828   5.8009   6.3438

          k = 0.0830-0.4312 0.3143 (  4446 PWs)   bands (ev):

   -31.7629 -31.7399 -13.6709 -13.6072 -13.2298 -13.1543 -13.1240 -13.0606
     4.0149   4.6426   6.0180   6.2050

          k = 0.0830-0.2395 0.0629 (  4445 PWs)   bands (ev):

   -31.8345 -31.6960 -13.6909 -13.3077 -13.2754 -13.1745 -13.0640 -13.0348
     1.8596   4.8486   6.8089   7.2703

          k = 0.0830-0.2395 0.1886 (  4435 PWs)   bands (ev):

   -31.8158 -31.7141 -13.6623 -13.3319 -13.2358 -13.2286 -13.0667 -13.0365
     2.2108   4.4064   6.9507   7.3846

          k = 0.0830-0.2395 0.3143 (  4447 PWs)   bands (ev):

   -31.7841 -31.7468 -13.5891 -13.4698 -13.1829 -13.1466 -13.1197 -13.0683
     2.8488   3.6486   7.2558   7.4427

          k = 0.0830-0.0479 0.0629 (  4430 PWs)   bands (ev):

   -31.8589 -31.6903 -13.7612 -13.2269 -13.2180 -13.0696 -13.0307 -13.0242
     1.1635   4.5314   6.9503   8.7769

          k = 0.0830-0.0479 0.1886 (  4422 PWs)   bands (ev):

   -31.8363 -31.7128 -13.6809 -13.1991 -13.1931 -13.1800 -13.0559 -13.0436
     1.5472   3.9611   7.4016   8.8163

          k = 0.0830-0.0479 0.3143 (  4450 PWs)   bands (ev):

   -31.7984 -31.7531 -13.5344 -13.3528 -13.1497 -13.1472 -13.0995 -13.0904
     2.2403   3.1087   8.0884   8.6501

          k = 0.2489 0.4312 0.0629 (  4434 PWs)   bands (ev):

   -31.7767 -31.7188 -13.5279 -13.4616 -13.3355 -13.3218 -13.1837 -13.0816
     3.6615   5.1650   5.4242   6.5850

          k = 0.2489 0.4312 0.1886 (  4442 PWs)   bands (ev):

   -31.7691 -31.7265 -13.6241 -13.5222 -13.3657 -13.2007 -13.1256 -13.0786
     3.9309   5.2203   5.6135   6.2346

          k = 0.2489 0.4312 0.3143 (  4447 PWs)   bands (ev):

   -31.7556 -31.7398 -13.6616 -13.6220 -13.2991 -13.2111 -13.0851 -13.0426
     4.4097   4.9550   5.8660   6.0107

          k = 0.2489 0.6228 0.0629 (  4440 PWs)   bands (ev):

   -31.7604 -31.7301 -13.5017 -13.4588 -13.3791 -13.3078 -13.2261 -13.0945
     4.2737   4.9021   5.1917   6.5647

          k = 0.2489 0.6228 0.1886 (  4450 PWs)   bands (ev):

   -31.7565 -31.7342 -13.6068 -13.5419 -13.4087 -13.1703 -13.1448 -13.0991
     4.5062   5.1187   5.3516   6.1799

          k = 0.2489 0.6228 0.3143 (  4441 PWs)   bands (ev):

   -31.7487 -31.7408 -13.6628 -13.6390 -13.3290 -13.2325 -13.0682 -13.0437
     4.9141   5.2954   5.5161   5.7289

          k = 0.2489-0.3354 0.0629 (  4442 PWs)   bands (ev):

   -31.7963 -31.7090 -13.5830 -13.4184 -13.3407 -13.2712 -13.1420 -13.0595
     3.0326   5.1426   5.9030   6.6337

          k = 0.2489-0.3354 0.1886 (  4438 PWs)   bands (ev):

   -31.7845 -31.7201 -13.6437 -13.4776 -13.3118 -13.2279 -13.1018 -13.0592
     3.3309   5.0218   6.0614   6.4043

          k = 0.2489-0.3354 0.3143 (  4444 PWs)   bands (ev):

   -31.7642 -31.7405 -13.6521 -13.5896 -13.2532 -13.1766 -13.1087 -13.0487
     3.8697   4.5225   6.2645   6.3519

          k = 0.2489-0.1437 0.0629 (  4444 PWs)   bands (ev):

   -31.8272 -31.6979 -13.6706 -13.3445 -13.2676 -13.2110 -13.0805 -13.0298
     2.0743   4.9256   6.7624   6.9385

          k = 0.2489-0.1437 0.1886 (  4445 PWs)   bands (ev):

   -31.8100 -31.7151 -13.6607 -13.3641 -13.2486 -13.2362 -13.0622 -13.0450
     2.4154   4.5334   6.8082   7.0759

          k = 0.2489-0.1437 0.3143 (  4452 PWs)   bands (ev):

   -31.7802 -31.7455 -13.6070 -13.5002 -13.1815 -13.1514 -13.1178 -13.0718
     3.0356   3.8117   7.0321   7.1647

          k = 0.4149 0.7186 0.0629 (  4450 PWs)   bands (ev):

   -31.7678 -31.7253 -13.5396 -13.4309 -13.3731 -13.3181 -13.2141 -13.0703
     4.3327   4.5620   5.3463   6.5621

          k = 0.4149 0.7186 0.1886 (  4439 PWs)   bands (ev):

   -31.7614 -31.7305 -13.6411 -13.5287 -13.3715 -13.1935 -13.1320 -13.0832
     4.5451   4.8269   5.4618   6.1334

          k = 0.4149 0.7186 0.3143 (  4442 PWs)   bands (ev):

   -31.7514 -31.7402 -13.6815 -13.6414 -13.2923 -13.2024 -13.0877 -13.0485
     4.9411   5.1859   5.5026   5.5660

          k = 0.4149-0.2395 0.0629 (  4457 PWs)   bands (ev):

   -31.7866 -31.7143 -13.5772 -13.4353 -13.3342 -13.3123 -13.1757 -13.0336
     3.5288   4.9831   5.4914   6.5875

          k = 0.4149-0.2395 0.1886 (  4465 PWs)   bands (ev):

   -31.7767 -31.7243 -13.6700 -13.5035 -13.2757 -13.2661 -13.0867 -13.0717
     3.8017   5.1253   5.5120   6.2238

          k = 0.4149-0.2395 0.3143 (  4445 PWs)   bands (ev):

   -31.7594 -31.7399 -13.6898 -13.6289 -13.2117 -13.1391 -13.1371 -13.0725
     4.2908   4.8676   5.6873   5.9558

!    total energy              =    -151.48356798 Ry
     Harris-Foulkes estimate   =    -151.48356798 Ry
     estimated scf accuracy    <          2.6E-10 Ry

     The total energy is the sum of the following terms:

     one-electron contribution =     -45.10537183 Ry
     hartree contribution      =      28.92022535 Ry
     xc contribution           =     -23.66604316 Ry
     ewald contribution        =    -111.63237834 Ry

     convergence has been achieved in   6 iterations

     Forces acting on atoms (Ry/au):

     atom    1 type  2   force =    -0.00000000    0.00000000    0.00000000
     atom    2 type  2   force =    -0.00000000    0.00000000   -0.00000000
     atom    3 type  1   force =    -0.00000000    0.00000000   -0.00000000
     atom    4 type  1   force =     0.00000000    0.00000000   -0.00000000
     atom    5 type  1   force =     0.00000000    0.00000000    0.00000000
     atom    6 type  1   force =     0.00000000    0.00000000    0.00000000

     Total force =     0.000000     Total SCF correction =     0.000000


     entering subroutine stress ...

          total   stress  (Ry/bohr**3)                   (kbar)     P=  178.77
   0.00120470  -0.00000000  -0.00000000        177.22     -0.00     -0.00
  -0.00000000   0.00120470  -0.00000000         -0.00    177.22     -0.00
  -0.00000000  -0.00000000   0.00123634         -0.00     -0.00    181.87


     number of scf cycles    =   4
     number of bfgs steps    =   3

     enthalpy old            =    -151.0241822456 Ry
     enthalpy new            =    -151.0242011083 Ry

     CASE: enthalpy_new < enthalpy_old

     new trust radius        =       0.0062440703 bohr
     new conv_thr            =       0.0000000100 Ry

     new unit-cell volume =    375.41045 a.u.^3 (    55.63009 Ang^3 )

CELL_PARAMETERS (alat=  6.86950000)
   1.003457279  -0.000000000   0.000000000
  -0.501728640   0.869019495   0.000000000
  -0.000000000  -0.000000000   1.328013721

ATOMIC_POSITIONS (crystal)
Ca       0.333333333   0.666666667   0.250000000
Ca       0.666666667   0.333333333   0.750000000
H        0.333333333   0.666666667   0.750000000
H        0.666666667   0.333333333   0.250000000
H       -0.000000000  -0.000000000   0.000000000
H       -0.000000000  -0.000000000   0.500000000



     Writing output data file CaH2_ambient.save
     NEW-OLD atomic charge density approx. for the potential
     NEW k-points:
        k(    1) = (   0.0830462   0.1438403   0.0627504), wk =   0.0370370
        k(    2) = (   0.0830462   0.1438403   0.1882511), wk =   0.0370370
        k(    3) = (   0.0830462   0.1438403   0.3137518), wk =   0.0370370
        k(    4) = (   0.0830462   0.3356273   0.0627504), wk =   0.0740741
        k(    5) = (   0.0830462   0.3356273   0.1882511), wk =   0.0740741
        k(    6) = (   0.0830462   0.3356273   0.3137518), wk =   0.0740741
        k(    7) = (   0.0830462   0.5274143   0.0627504), wk =   0.0740741
        k(    8) = (   0.0830462   0.5274143   0.1882511), wk =   0.0740741
        k(    9) = (   0.0830462   0.5274143   0.3137518), wk =   0.0740741
        k(   10) = (   0.0830462  -0.4315208   0.0627504), wk =   0.0740741
        k(   11) = (   0.0830462  -0.4315208   0.1882511), wk =   0.0740741
        k(   12) = (   0.0830462  -0.4315208   0.3137518), wk =   0.0740741
        k(   13) = (   0.0830462  -0.2397338   0.0627504), wk =   0.0740741
        k(   14) = (   0.0830462  -0.2397338   0.1882511), wk =   0.0740741
        k(   15) = (   0.0830462  -0.2397338   0.3137518), wk =   0.0740741
        k(   16) = (   0.0830462  -0.0479468   0.0627504), wk =   0.0370370
        k(   17) = (   0.0830462  -0.0479468   0.1882511), wk =   0.0370370
        k(   18) = (   0.0830462  -0.0479468   0.3137518), wk =   0.0370370
        k(   19) = (   0.2491387   0.4315208   0.0627504), wk =   0.0370370
        k(   20) = (   0.2491387   0.4315208   0.1882511), wk =   0.0370370
        k(   21) = (   0.2491387   0.4315208   0.3137518), wk =   0.0370370
        k(   22) = (   0.2491387   0.6233078   0.0627504), wk =   0.0740741
        k(   23) = (   0.2491387   0.6233078   0.1882511), wk =   0.0740741
        k(   24) = (   0.2491387   0.6233078   0.3137518), wk =   0.0740741
        k(   25) = (   0.2491387  -0.3356273   0.0627504), wk =   0.0740741
        k(   26) = (   0.2491387  -0.3356273   0.1882511), wk =   0.0740741
        k(   27) = (   0.2491387  -0.3356273   0.3137518), wk =   0.0740741
        k(   28) = (   0.2491387  -0.1438403   0.0627504), wk =   0.0370370
        k(   29) = (   0.2491387  -0.1438403   0.1882511), wk =   0.0370370
        k(   30) = (   0.2491387  -0.1438403   0.3137518), wk =   0.0370370
        k(   31) = (   0.4152311   0.7192014   0.0627504), wk =   0.0370370
        k(   32) = (   0.4152311   0.7192014   0.1882511), wk =   0.0370370
        k(   33) = (   0.4152311   0.7192014   0.3137518), wk =   0.0370370
        k(   34) = (   0.4152311  -0.2397338   0.0627504), wk =   0.0370370
        k(   35) = (   0.4152311  -0.2397338   0.1882511), wk =   0.0370370
        k(   36) = (   0.4152311  -0.2397338   0.3137518), wk =   0.0370370
     extrapolated charge   23.99961, renormalised to   24.00000

     total cpu time spent up to now is      654.4 secs

     per-process dynamical memory:    23.0 Mb

     Self-consistent Calculation

     iteration #  1     ecut=    80.00 Ry     beta=0.30
     Davidson diagonalization with overlap
     ethr =  1.00E-06,  avg # of iterations =  2.0

     Threshold (ethr) on eigenvalues was too large:
     Diagonalizing with lowered threshold

     Davidson diagonalization with overlap
     ethr =  1.35E-09,  avg # of iterations =  3.3

     total cpu time spent up to now is      677.3 secs

     total energy              =    -151.48357010 Ry
     Harris-Foulkes estimate   =    -151.48400761 Ry
     estimated scf accuracy    <       0.00000035 Ry

     iteration #  2     ecut=    80.00 Ry     beta=0.30
     Davidson diagonalization with overlap
     ethr =  1.48E-09,  avg # of iterations =  1.0

     total cpu time spent up to now is      685.5 secs

     total energy              =    -151.48357012 Ry
     Harris-Foulkes estimate   =    -151.48357011 Ry
     estimated scf accuracy    <       0.00000021 Ry

     iteration #  3     ecut=    80.00 Ry     beta=0.30
     Davidson diagonalization with overlap
     ethr =  8.93E-10,  avg # of iterations =  2.0

     total cpu time spent up to now is      694.0 secs

     End of self-consistent calculation

          k = 0.0830 0.1438 0.0628 (  4433 PWs)   bands (ev):

   -31.8466 -31.6890 -13.7331 -13.2500 -13.2345 -13.1101 -13.0327 -13.0285
     1.4049   4.6516   6.8835   8.1411

          k = 0.0830 0.1438 0.1883 (  4435 PWs)   bands (ev):

   -31.8257 -31.7103 -13.6696 -13.2421 -13.2101 -13.1974 -13.0558 -13.0327
     1.7758   4.1159   7.2277   8.2117

          k = 0.0830 0.1438 0.3138 (  4455 PWs)   bands (ev):

   -31.7902 -31.7476 -13.5501 -13.3946 -13.1570 -13.1448 -13.1029 -13.0769
     2.4479   3.2920   7.7598   8.1500

          k = 0.0830 0.3356 0.0628 (  4441 PWs)   bands (ev):

   -31.8102 -31.6987 -13.6294 -13.3758 -13.3015 -13.2353 -13.1051 -13.0356
     2.4832   5.0478   6.4276   6.6927

          k = 0.0830 0.3356 0.1883 (  4446 PWs)   bands (ev):

   -31.7952 -31.7138 -13.6515 -13.4159 -13.2646 -13.2392 -13.0739 -13.0472
     2.8045   4.7579   6.5151   6.6723

          k = 0.0830 0.3356 0.3138 (  4452 PWs)   bands (ev):

   -31.7695 -31.7398 -13.6277 -13.5416 -13.2041 -13.1429 -13.1260 -13.0598
     3.3886   4.1146   6.6729   6.7535

          k = 0.0830 0.5274 0.0628 (  4457 PWs)   bands (ev):

   -31.7734 -31.7166 -13.5617 -13.4268 -13.3525 -13.3153 -13.1931 -13.0418
     3.9640   4.7174   5.4206   6.5530

          k = 0.0830 0.5274 0.1883 (  4454 PWs)   bands (ev):

   -31.7657 -31.7235 -13.6615 -13.5157 -13.3149 -13.2288 -13.1040 -13.0707
     4.2126   4.9489   5.4709   6.1207

          k = 0.0830 0.5274 0.3138 (  4444 PWs)   bands (ev):

   -31.7519 -31.7362 -13.6900 -13.6371 -13.2384 -13.1582 -13.1156 -13.0604
     4.6546   5.1337   5.4185   5.7051

          k = 0.0830-0.4315 0.0628 (  4446 PWs)   bands (ev):

   -31.7891 -31.7074 -13.5778 -13.4286 -13.3230 -13.2919 -13.1548 -13.0394
     3.2081   5.1263   5.7010   6.6014

          k = 0.0830-0.4315 0.1883 (  4453 PWs)   bands (ev):

   -31.7784 -31.7183 -13.6541 -13.4824 -13.2964 -13.2374 -13.0887 -13.0625
     3.4958   5.0840   5.8037   6.3372

          k = 0.0830-0.4315 0.3138 (  4446 PWs)   bands (ev):

   -31.7593 -31.7365 -13.6666 -13.6032 -13.2259 -13.1512 -13.1219 -13.0589
     4.0147   4.6406   6.0189   6.2038

          k = 0.0830-0.2397 0.0628 (  4445 PWs)   bands (ev):

   -31.8307 -31.6930 -13.6874 -13.3037 -13.2707 -13.1714 -13.0616 -13.0317
     1.8610   4.8502   6.7934   7.2782

          k = 0.0830-0.2397 0.1883 (  4435 PWs)   bands (ev):

   -31.8122 -31.7110 -13.6584 -13.3284 -13.2324 -13.2240 -13.0634 -13.0343
     2.2108   4.4033   6.9431   7.3900

          k = 0.0830-0.2397 0.3138 (  4447 PWs)   bands (ev):

   -31.7806 -31.7435 -13.5850 -13.4659 -13.1787 -13.1438 -13.1159 -13.0659
     2.8466   3.6446   7.2533   7.4441

          k = 0.0830-0.0479 0.0628 (  4430 PWs)   bands (ev):

   -31.8552 -31.6875 -13.7579 -13.2220 -13.2130 -13.0666 -13.0273 -13.0217
     1.1636   4.5305   6.9336   8.7871

          k = 0.0830-0.0479 0.1883 (  4422 PWs)   bands (ev):

   -31.8327 -31.7099 -13.6774 -13.1946 -13.1882 -13.1768 -13.0523 -13.0405
     1.5458   3.9563   7.3914   8.8227

          k = 0.0830-0.0479 0.3138 (  4450 PWs)   bands (ev):

   -31.7950 -31.7500 -13.5310 -13.3495 -13.1453 -13.1431 -13.0956 -13.0868
     2.2367   3.1034   8.0829   8.6500

          k = 0.2491 0.4315 0.0628 (  4434 PWs)   bands (ev):

   -31.7730 -31.7155 -13.5243 -13.4578 -13.3328 -13.3184 -13.1812 -13.0794
     3.6659   5.1711   5.4300   6.5713

          k = 0.2491 0.4315 0.1883 (  4442 PWs)   bands (ev):

   -31.7654 -31.7231 -13.6199 -13.5186 -13.3616 -13.1987 -13.1231 -13.0768
     3.9338   5.2231   5.6176   6.2265

          k = 0.2491 0.4315 0.3138 (  4447 PWs)   bands (ev):

   -31.7521 -31.7363 -13.6572 -13.6178 -13.2956 -13.2083 -13.0833 -13.0410
     4.4101   4.9539   5.8674   6.0092

          k = 0.2491 0.6233 0.0628 (  4440 PWs)   bands (ev):

   -31.7568 -31.7267 -13.4981 -13.4550 -13.3758 -13.3051 -13.2237 -13.0925
     4.2786   4.9085   5.1980   6.5514

          k = 0.2491 0.6233 0.1883 (  4450 PWs)   bands (ev):

   -31.7528 -31.7307 -13.6027 -13.5381 -13.4048 -13.1684 -13.1425 -13.0972
     4.5095   5.1233   5.3557   6.1707

          k = 0.2491 0.6233 0.3138 (  4441 PWs)   bands (ev):

   -31.7452 -31.7373 -13.6584 -13.6347 -13.3256 -13.2298 -13.0666 -13.0421
     4.9148   5.2964   5.5173   5.7264

          k = 0.2491-0.3356 0.0628 (  4442 PWs)   bands (ev):

   -31.7926 -31.7057 -13.5794 -13.4148 -13.3375 -13.2678 -13.1396 -13.0570
     3.0361   5.1476   5.9092   6.6195

          k = 0.2491-0.3356 0.1883 (  4438 PWs)   bands (ev):

   -31.7809 -31.7168 -13.6395 -13.4741 -13.3076 -13.2255 -13.0990 -13.0573
     3.3329   5.0221   6.0654   6.3976

          k = 0.2491-0.3356 0.3138 (  4444 PWs)   bands (ev):

   -31.7607 -31.7371 -13.6477 -13.5855 -13.2494 -13.1736 -13.1066 -13.0470
     3.8694   4.5204   6.2656   6.3507

          k = 0.2491-0.1438 0.0628 (  4444 PWs)   bands (ev):

   -31.8234 -31.6949 -13.6671 -13.3408 -13.2626 -13.2083 -13.0782 -13.0268
     2.0762   4.9279   6.7479   6.9451

          k = 0.2491-0.1438 0.1883 (  4445 PWs)   bands (ev):

   -31.8064 -31.7120 -13.6568 -13.3607 -13.2456 -13.2315 -13.0588 -13.0430
     2.4159   4.5309   6.8019   7.0801

          k = 0.2491-0.1438 0.3138 (  4452 PWs)   bands (ev):

   -31.7767 -31.7422 -13.6028 -13.4963 -13.1772 -13.1490 -13.1140 -13.0697
     3.0338   3.8080   7.0303   7.1658

          k = 0.4152 0.7192 0.0628 (  4450 PWs)   bands (ev):

   -31.7641 -31.7219 -13.5362 -13.4272 -13.3703 -13.3146 -13.2119 -13.0680
     4.3373   4.5686   5.3518   6.5485

          k = 0.4152 0.7192 0.1883 (  4439 PWs)   bands (ev):

   -31.7578 -31.7270 -13.6371 -13.5251 -13.3676 -13.1912 -13.1299 -13.0811
     4.5482   4.8317   5.4654   6.1240

          k = 0.4152 0.7192 0.3138 (  4442 PWs)   bands (ev):

   -31.7479 -31.7367 -13.6772 -13.6373 -13.2888 -13.1995 -13.0860 -13.0469
     4.9416   5.1883   5.5037   5.5616

          k = 0.4152-0.2397 0.0628 (  4457 PWs)   bands (ev):

   -31.7829 -31.7110 -13.5737 -13.4326 -13.3319 -13.3074 -13.1735 -13.0308
     3.5329   4.9895   5.4956   6.5733

          k = 0.4152-0.2397 0.1883 (  4465 PWs)   bands (ev):

   -31.7731 -31.7210 -13.6660 -13.5002 -13.2710 -13.2641 -13.0852 -13.0686
     3.8043   5.1289   5.5131   6.2163

          k = 0.4152-0.2397 0.3138 (  4445 PWs)   bands (ev):

   -31.7558 -31.7364 -13.6856 -13.6249 -13.2076 -13.1375 -13.1335 -13.0711
     4.2909   4.8661   5.6880   5.9544

!    total energy              =    -151.48357013 Ry
     Harris-Foulkes estimate   =    -151.48357013 Ry
     estimated scf accuracy    <          8.3E-09 Ry

     The total energy is the sum of the following terms:

     one-electron contribution =     -45.09955083 Ry
     hartree contribution      =      28.91937441 Ry
     xc contribution           =     -23.66669615 Ry
     ewald contribution        =    -111.63669757 Ry

     convergence has been achieved in   3 iterations

     Forces acting on atoms (Ry/au):

     atom    1 type  2   force =     0.00000000    0.00000000    0.00000000
     atom    2 type  2   force =    -0.00000000   -0.00000000    0.00000000
     atom    3 type  1   force =     0.00000000    0.00000000   -0.00000000
     atom    4 type  1   force =     0.00000000    0.00000000    0.00000000
     atom    5 type  1   force =    -0.00000000   -0.00000000    0.00000000
     atom    6 type  1   force =    -0.00000000   -0.00000000    0.00000000

     Total force =     0.000000     Total SCF correction =     0.000000


     entering subroutine stress ...

          total   stress  (Ry/bohr**3)                   (kbar)     P=  179.20
   0.00121643  -0.00000000   0.00000000        178.94     -0.00      0.00
  -0.00000000   0.00121643  -0.00000000         -0.00    178.94     -0.00
  -0.00000000  -0.00000000   0.00122159         -0.00     -0.00    179.70


     number of scf cycles    =   5
     number of bfgs steps    =   4

     enthalpy old            =    -151.0242011083 Ry
     enthalpy new            =    -151.0242121555 Ry

     CASE: enthalpy_new < enthalpy_old

     new trust radius        =       0.0011492663 bohr
     new conv_thr            =       0.0000000100 Ry

     new unit-cell volume =    375.22632 a.u.^3 (    55.60280 Ang^3 )

CELL_PARAMETERS (alat=  6.86950000)
   1.003159677  -0.000000000   0.000000000
  -0.501579838   0.868761764   0.000000000
   0.000000000  -0.000000000   1.328150043

ATOMIC_POSITIONS (crystal)
Ca       0.333333333   0.666666667   0.250000000
Ca       0.666666667   0.333333333   0.750000000
H        0.333333333   0.666666667   0.750000000
H        0.666666667   0.333333333   0.250000000
H       -0.000000000  -0.000000000   0.000000000
H       -0.000000000  -0.000000000   0.500000000



     Writing output data file CaH2_ambient.save
     NEW-OLD atomic charge density approx. for the potential
     NEW k-points:
        k(    1) = (   0.0830709   0.1438829   0.0627439), wk =   0.0370370
        k(    2) = (   0.0830709   0.1438829   0.1882317), wk =   0.0370370
        k(    3) = (   0.0830709   0.1438829   0.3137196), wk =   0.0370370
        k(    4) = (   0.0830709   0.3357269   0.0627439), wk =   0.0740741
        k(    5) = (   0.0830709   0.3357269   0.1882317), wk =   0.0740741
        k(    6) = (   0.0830709   0.3357269   0.3137196), wk =   0.0740741
        k(    7) = (   0.0830709   0.5275708   0.0627439), wk =   0.0740741
        k(    8) = (   0.0830709   0.5275708   0.1882317), wk =   0.0740741
        k(    9) = (   0.0830709   0.5275708   0.3137196), wk =   0.0740741
        k(   10) = (   0.0830709  -0.4316488   0.0627439), wk =   0.0740741
        k(   11) = (   0.0830709  -0.4316488   0.1882317), wk =   0.0740741
        k(   12) = (   0.0830709  -0.4316488   0.3137196), wk =   0.0740741
        k(   13) = (   0.0830709  -0.2398049   0.0627439), wk =   0.0740741
        k(   14) = (   0.0830709  -0.2398049   0.1882317), wk =   0.0740741
        k(   15) = (   0.0830709  -0.2398049   0.3137196), wk =   0.0740741
        k(   16) = (   0.0830709  -0.0479610   0.0627439), wk =   0.0370370
        k(   17) = (   0.0830709  -0.0479610   0.1882317), wk =   0.0370370
        k(   18) = (   0.0830709  -0.0479610   0.3137196), wk =   0.0370370
        k(   19) = (   0.2492126   0.4316488   0.0627439), wk =   0.0370370
        k(   20) = (   0.2492126   0.4316488   0.1882317), wk =   0.0370370
        k(   21) = (   0.2492126   0.4316488   0.3137196), wk =   0.0370370
        k(   22) = (   0.2492126   0.6234928   0.0627439), wk =   0.0740741
        k(   23) = (   0.2492126   0.6234928   0.1882317), wk =   0.0740741
        k(   24) = (   0.2492126   0.6234928   0.3137196), wk =   0.0740741
        k(   25) = (   0.2492126  -0.3357269   0.0627439), wk =   0.0740741
        k(   26) = (   0.2492126  -0.3357269   0.1882317), wk =   0.0740741
        k(   27) = (   0.2492126  -0.3357269   0.3137196), wk =   0.0740741
        k(   28) = (   0.2492126  -0.1438829   0.0627439), wk =   0.0370370
        k(   29) = (   0.2492126  -0.1438829   0.1882317), wk =   0.0370370
        k(   30) = (   0.2492126  -0.1438829   0.3137196), wk =   0.0370370
        k(   31) = (   0.4153543   0.7194147   0.0627439), wk =   0.0370370
        k(   32) = (   0.4153543   0.7194147   0.1882317), wk =   0.0370370
        k(   33) = (   0.4153543   0.7194147   0.3137196), wk =   0.0370370
        k(   34) = (   0.4153543  -0.2398049   0.0627439), wk =   0.0370370
        k(   35) = (   0.4153543  -0.2398049   0.1882317), wk =   0.0370370
        k(   36) = (   0.4153543  -0.2398049   0.3137196), wk =   0.0370370
     extrapolated charge   23.99019, renormalised to   24.00000

     total cpu time spent up to now is      779.0 secs

     per-process dynamical memory:    23.0 Mb

     Self-consistent Calculation

     iteration #  1     ecut=    80.00 Ry     beta=0.30
     Davidson diagonalization with overlap
     ethr =  1.00E-06,  avg # of iterations =  1.0

     Threshold (ethr) on eigenvalues was too large:
     Diagonalizing with lowered threshold

     Davidson diagonalization with overlap
     ethr =  1.95E-08,  avg # of iterations =  2.1

     total cpu time spent up to now is      795.6 secs

     total energy              =    -151.48334231 Ry
     Harris-Foulkes estimate   =    -151.49442818 Ry
     estimated scf accuracy    <       0.00000513 Ry

     iteration #  2     ecut=    80.00 Ry     beta=0.30
     Davidson diagonalization with overlap
     ethr =  2.14E-08,  avg # of iterations =  2.0

     total cpu time spent up to now is      807.2 secs

     total energy              =    -151.48334565 Ry
     Harris-Foulkes estimate   =    -151.48334569 Ry
     estimated scf accuracy    <       0.00000021 Ry

     iteration #  3     ecut=    80.00 Ry     beta=0.30
     Davidson diagonalization with overlap
     ethr =  8.67E-10,  avg # of iterations =  1.1

     total cpu time spent up to now is      815.4 secs

     total energy              =    -151.48334557 Ry
     Harris-Foulkes estimate   =    -151.48334565 Ry
     estimated scf accuracy    <       0.00000013 Ry

     iteration #  4     ecut=    80.00 Ry     beta=0.30
     Davidson diagonalization with overlap
     ethr =  5.36E-10,  avg # of iterations =  2.0

     total cpu time spent up to now is      826.5 secs

     End of self-consistent calculation

          k = 0.0831 0.1439 0.0627 (  4433 PWs)   bands (ev):

   -31.8400 -31.6822 -13.7271 -13.2431 -13.2275 -13.1033 -13.0259 -13.0215
     1.4088   4.6558   6.8861   8.1478

          k = 0.0831 0.1439 0.1882 (  4435 PWs)   bands (ev):

   -31.8191 -31.7036 -13.6634 -13.2353 -13.2032 -13.1905 -13.0488 -13.0258
     1.7796   4.1196   7.2312   8.2179

          k = 0.0831 0.1439 0.3137 (  4455 PWs)   bands (ev):

   -31.7836 -31.7409 -13.5438 -13.3881 -13.1500 -13.1379 -13.0959 -13.0700
     2.4516   3.2957   7.7641   8.1553

          k = 0.0831 0.3357 0.0627 (  4441 PWs)   bands (ev):

   -31.8035 -31.6919 -13.6231 -13.3693 -13.2948 -13.2286 -13.0984 -13.0287
     2.4880   5.0528   6.4332   6.6952

          k = 0.0831 0.3357 0.1882 (  4446 PWs)   bands (ev):

   -31.7885 -31.7071 -13.6453 -13.4095 -13.2579 -13.2325 -13.0670 -13.0404
     2.8091   4.7623   6.5199   6.6764

          k = 0.0831 0.3357 0.3137 (  4452 PWs)   bands (ev):

   -31.7628 -31.7331 -13.6214 -13.5353 -13.1972 -13.1361 -13.1191 -13.0531
     3.3930   4.1188   6.6775   6.7582

          k = 0.0831 0.5276 0.0627 (  4457 PWs)   bands (ev):

   -31.7666 -31.7098 -13.5555 -13.4204 -13.3462 -13.3085 -13.1865 -13.0350
     3.9695   4.7233   5.4256   6.5551

          k = 0.0831 0.5276 0.1882 (  4454 PWs)   bands (ev):

   -31.7590 -31.7168 -13.6553 -13.5094 -13.3082 -13.2222 -13.0974 -13.0638
     4.2179   4.9546   5.4756   6.1237

          k = 0.0831 0.5276 0.3137 (  4444 PWs)   bands (ev):

[...]

     crystal axes: (cart. coord. in units of alat)
               a(1) = (   1.003160  -0.000000   0.000000 )  
               a(2) = (  -0.501580   0.868762   0.000000 )  
               a(3) = (   0.000000  -0.000000   1.328150 )  

     reciprocal axes: (cart. coord. in units 2 pi/alat)
               b(1) = (  0.996850  0.575532 -0.000000 )  
               b(2) = (  0.000000  1.151064  0.000000 )  
               b(3) = ( -0.000000 -0.000000  0.752927 )  


     PseudoPot. # 1 for H  read from file:
     /home/ilia/espresso/pseudo/H.pbe-sp-mt.ncpp
     MD5 check sum: 7a641936b52ccecd26bd1ad87cca5aed
     Pseudo is Norm-conserving, Zval =  1.0
     Generated by old ld1 code (numerical format)
     Using radial grid of 1076 points,  0 beta functions with: 

     PseudoPot. # 2 for Ca read from file:
     /home/ilia/espresso/pseudo/Ca.pbe-sp-mt_ion2.ncpp
     MD5 check sum: 4bcd670d05521f7b178fdf0a334578ab
     Pseudo is Norm-conserving, Zval = 10.0
     Generated by old ld1 code (numerical format)
     Using radial grid of 1153 points,  1 beta functions with: 
                l(1) =   1

     atomic species   valence    mass     pseudopotential
        H              1.00     1.00700     H ( 1.00)
        Ca            10.00    40.07800     Ca( 1.00)

     24 Sym. Ops., with inversion, found (12 have fractional translation)



   Cartesian axes

     site n.     atom                  positions (alat units)
         1           Ca  tau(   1) = (   0.0000000   0.5791745   0.3320375  )
         2           Ca  tau(   2) = (   0.5015798   0.2895873   0.9961125  )
         3           H   tau(   3) = (   0.0000000   0.5791745   0.9961125  )
         4           H   tau(   4) = (   0.5015798   0.2895873   0.3320375  )
         5           H   tau(   5) = (  -0.0000000  -0.0000000   0.0000000  )
         6           H   tau(   6) = (  -0.0000000  -0.0000000   0.6640750  )

     number of k points=    36
                       cart. coord. in units 2pi/alat
        k(    1) = (   0.0830709   0.1438829   0.0627439), wk =   0.0370370
        k(    2) = (   0.0830709   0.1438829   0.1882317), wk =   0.0370370
        k(    3) = (   0.0830709   0.1438829   0.3137196), wk =   0.0370370
        k(    4) = (   0.0830709   0.3357269   0.0627439), wk =   0.0740741
        k(    5) = (   0.0830709   0.3357269   0.1882317), wk =   0.0740741
        k(    6) = (   0.0830709   0.3357269   0.3137196), wk =   0.0740741
        k(    7) = (   0.0830709   0.5275708   0.0627439), wk =   0.0740741
        k(    8) = (   0.0830709   0.5275708   0.1882317), wk =   0.0740741
        k(    9) = (   0.0830709   0.5275708   0.3137196), wk =   0.0740741
        k(   10) = (   0.0830709  -0.4316488   0.0627439), wk =   0.0740741
        k(   11) = (   0.0830709  -0.4316488   0.1882317), wk =   0.0740741
        k(   12) = (   0.0830709  -0.4316488   0.3137196), wk =   0.0740741
        k(   13) = (   0.0830709  -0.2398049   0.0627439), wk =   0.0740741
        k(   14) = (   0.0830709  -0.2398049   0.1882317), wk =   0.0740741
        k(   15) = (   0.0830709  -0.2398049   0.3137196), wk =   0.0740741
        k(   16) = (   0.0830709  -0.0479610   0.0627439), wk =   0.0370370
        k(   17) = (   0.0830709  -0.0479610   0.1882317), wk =   0.0370370
        k(   18) = (   0.0830709  -0.0479610   0.3137196), wk =   0.0370370
        k(   19) = (   0.2492126   0.4316488   0.0627439), wk =   0.0370370
        k(   20) = (   0.2492126   0.4316488   0.1882317), wk =   0.0370370
        k(   21) = (   0.2492126   0.4316488   0.3137196), wk =   0.0370370
        k(   22) = (   0.2492126   0.6234928   0.0627439), wk =   0.0740741
        k(   23) = (   0.2492126   0.6234928   0.1882317), wk =   0.0740741
        k(   24) = (   0.2492126   0.6234928   0.3137196), wk =   0.0740741
        k(   25) = (   0.2492126  -0.3357269   0.0627439), wk =   0.0740741
        k(   26) = (   0.2492126  -0.3357269   0.1882317), wk =   0.0740741
        k(   27) = (   0.2492126  -0.3357269   0.3137196), wk =   0.0740741
        k(   28) = (   0.2492126  -0.1438829   0.0627439), wk =   0.0370370
        k(   29) = (   0.2492126  -0.1438829   0.1882317), wk =   0.0370370
        k(   30) = (   0.2492126  -0.1438829   0.3137196), wk =   0.0370370
        k(   31) = (   0.4153543   0.7194147   0.0627439), wk =   0.0370370
        k(   32) = (   0.4153543   0.7194147   0.1882317), wk =   0.0370370
        k(   33) = (   0.4153543   0.7194147   0.3137196), wk =   0.0370370
        k(   34) = (   0.4153543  -0.2398049   0.0627439), wk =   0.0370370
        k(   35) = (   0.4153543  -0.2398049   0.1882317), wk =   0.0370370
        k(   36) = (   0.4153543  -0.2398049   0.3137196), wk =   0.0370370

     Dense  grid:    36261 G-vectors     FFT dimensions: (  40,  40,  54)

     Largest allocated arrays     est. size (Mb)     dimensions
        Kohn-Sham Wavefunctions         0.83 Mb     (   4556,   12)
        NL pseudopotentials             0.42 Mb     (   4556,    6)
        Each V/rho on FFT grid          1.32 Mb     (  86400)
        Each G-vector array             0.28 Mb     (  36261)
        G-vector shells                 0.01 Mb     (   1687)
     Largest temporary arrays     est. size (Mb)     dimensions
        Auxiliary wavefunctions         3.34 Mb     (   4556,   48)
        Each subspace H/S matrix        0.04 Mb     (  48,  48)
        Each <psi_i|beta_j> matrix      0.00 Mb     (      6,   12)
        Arrays for rho mixing          21.09 Mb     (  86400,  16)

     Initial potential from superposition of free atoms

     starting charge   19.99996, renormalised to   24.00000
     Starting wfc are   12 randomized atomic wfcs

     Writing output data file CaH2_ambient.save

     total cpu time spent up to now is      877.7 secs

     per-process dynamical memory:    22.9 Mb

     Self-consistent Calculation

     iteration #  1     ecut=    80.00 Ry     beta=0.30
     Davidson diagonalization with overlap
     ethr =  1.00E-06,  avg # of iterations =  5.0

     total cpu time spent up to now is      901.0 secs

     total energy              =    -153.09281091 Ry
     Harris-Foulkes estimate   =    -154.23431965 Ry
     estimated scf accuracy    <       5.61944982 Ry

     iteration #  2     ecut=    80.00 Ry     beta=0.30
     Davidson diagonalization with overlap
     ethr =  1.00E-02,  avg # of iterations =  1.0

     total cpu time spent up to now is      909.6 secs

     total energy              =    -150.85437252 Ry
     Harris-Foulkes estimate   =    -153.15557108 Ry
     estimated scf accuracy    <       3.36970423 Ry

     iteration #  3     ecut=    80.00 Ry     beta=0.30
     Davidson diagonalization with overlap
     ethr =  1.00E-02,  avg # of iterations =  2.0

     total cpu time spent up to now is      921.4 secs

     total energy              =    -151.47466639 Ry
     Harris-Foulkes estimate   =    -151.48105028 Ry
     estimated scf accuracy    <       0.12588802 Ry

     iteration #  4     ecut=    80.00 Ry     beta=0.30
     Davidson diagonalization with overlap
     ethr =  5.25E-04,  avg # of iterations =  1.2

     total cpu time spent up to now is      929.8 secs

     total energy              =    -151.47807332 Ry
     Harris-Foulkes estimate   =    -151.47720290 Ry
     estimated scf accuracy    <       0.07717663 Ry

     iteration #  5     ecut=    80.00 Ry     beta=0.30
     Davidson diagonalization with overlap
     ethr =  3.22E-04,  avg # of iterations =  2.0

     total cpu time spent up to now is      939.0 secs

     total energy              =    -151.48400311 Ry
     Harris-Foulkes estimate   =    -151.48411000 Ry
     estimated scf accuracy    <       0.00221443 Ry

     iteration #  6     ecut=    80.00 Ry     beta=0.30
     Davidson diagonalization with overlap
     ethr =  9.23E-06,  avg # of iterations =  2.1

     total cpu time spent up to now is      947.9 secs

     total energy              =    -151.48429725 Ry
     Harris-Foulkes estimate   =    -151.48413970 Ry
     estimated scf accuracy    <       0.00116499 Ry

     iteration #  7     ecut=    80.00 Ry     beta=0.30
     Davidson diagonalization with overlap
     ethr =  4.85E-06,  avg # of iterations =  2.0

     total cpu time spent up to now is      957.1 secs

     total energy              =    -151.48421031 Ry
     Harris-Foulkes estimate   =    -151.48436474 Ry
     estimated scf accuracy    <       0.00023710 Ry

     iteration #  8     ecut=    80.00 Ry     beta=0.30
     Davidson diagonalization with overlap
     ethr =  9.88E-07,  avg # of iterations =  2.0

     total cpu time spent up to now is      968.4 secs

     total energy              =    -151.48424857 Ry
     Harris-Foulkes estimate   =    -151.48424674 Ry
     estimated scf accuracy    <       0.00000339 Ry

     iteration #  9     ecut=    80.00 Ry     beta=0.30
     Davidson diagonalization with overlap
     ethr =  1.41E-08,  avg # of iterations =  2.9

     total cpu time spent up to now is      980.7 secs

     total energy              =    -151.48424613 Ry
     Harris-Foulkes estimate   =    -151.48425229 Ry
     estimated scf accuracy    <       0.00001283 Ry

     iteration # 10     ecut=    80.00 Ry     beta=0.30
     Davidson diagonalization with overlap
     ethr =  1.41E-08,  avg # of iterations =  2.0

     total cpu time spent up to now is      992.7 secs

     total energy              =    -151.48424809 Ry
     Harris-Foulkes estimate   =    -151.48424810 Ry
     estimated scf accuracy    <       0.00000009 Ry

     iteration # 11     ecut=    80.00 Ry     beta=0.30
     Davidson diagonalization with overlap
     ethr =  3.90E-10,  avg # of iterations =  2.0

     total cpu time spent up to now is     1002.0 secs

     total energy              =    -151.48424809 Ry
     Harris-Foulkes estimate   =    -151.48424810 Ry
     estimated scf accuracy    <       0.00000004 Ry

     iteration # 12     ecut=    80.00 Ry     beta=0.30
     Davidson diagonalization with overlap
     ethr =  1.86E-10,  avg # of iterations =  2.0

     total cpu time spent up to now is     1010.6 secs

     End of self-consistent calculation

          k = 0.0831 0.1439 0.0627 (  4521 PWs)   bands (ev):

   -31.8429 -31.6852 -13.7270 -13.2432 -13.2276 -13.1033 -13.0258 -13.0215
     1.4086   4.6558   6.8863   8.1479

          k = 0.0831 0.1439 0.1882 (  4530 PWs)   bands (ev):

   -31.8221 -31.7070 -13.6633 -13.2353 -13.2033 -13.1905 -13.0489 -13.0258
     1.7795   4.1196   7.2313   8.2180

          k = 0.0831 0.1439 0.3137 (  4527 PWs)   bands (ev):

   -31.7856 -31.7436 -13.5437 -13.3880 -13.1501 -13.1380 -13.0960 -13.0701
     2.4515   3.2956   7.7643   8.1555

          k = 0.0831 0.3357 0.0627 (  4531 PWs)   bands (ev):

   -31.8061 -31.6953 -13.6231 -13.3694 -13.2948 -13.2286 -13.0983 -13.0288
     2.4879   5.0529   6.4333   6.6953

          k = 0.0831 0.3357 0.1882 (  4534 PWs)   bands (ev):

   -31.7914 -31.7101 -13.6452 -13.4094 -13.2579 -13.2326 -13.0671 -13.0404
     2.8090   4.7624   6.5200   6.6766

          k = 0.0831 0.3357 0.3137 (  4541 PWs)   bands (ev):

   -31.7657 -31.7361 -13.6214 -13.5352 -13.1973 -13.1362 -13.1192 -13.0531
     3.3929   4.1188   6.6776   6.7583

          k = 0.0831 0.5276 0.0627 (  4545 PWs)   bands (ev):

   -31.7697 -31.7126 -13.5555 -13.4204 -13.3462 -13.3086 -13.1865 -13.0350
     3.9695   4.7233   5.4257   6.5553

          k = 0.0831 0.5276 0.1882 (  4539 PWs)   bands (ev):

   -31.7620 -31.7194 -13.6553 -13.5094 -13.3082 -13.2222 -13.0974 -13.0639
     4.2179   4.9546   5.4757   6.1238

          k = 0.0831 0.5276 0.3137 (  4542 PWs)   bands (ev):

   -31.7484 -31.7327 -13.6838 -13.6309 -13.2317 -13.1514 -13.1089 -13.0537
     4.6596   5.1390   5.4228   5.7095

          k = 0.0831-0.4316 0.0627 (  4533 PWs)   bands (ev):

   -31.7852 -31.7037 -13.5715 -13.4224 -13.3165 -13.2852 -13.1481 -13.0326
     3.2132   5.1321   5.7062   6.6038

          k = 0.0831-0.4316 0.1882 (  4536 PWs)   bands (ev):

   -31.7742 -31.7145 -13.6479 -13.4761 -13.2897 -13.2308 -13.0820 -13.0557
     3.5007   5.0892   5.8087   6.3407

          k = 0.0831-0.4316 0.3137 (  4546 PWs)   bands (ev):

   -31.7553 -31.7337 -13.6604 -13.5969 -13.2192 -13.1444 -13.1153 -13.0522
     4.0194   4.6452   6.0237   6.2083

          k = 0.0831-0.2398 0.0627 (  4526 PWs)   bands (ev):

   -31.8265 -31.6892 -13.6812 -13.2971 -13.2640 -13.1647 -13.0547 -13.0248
     1.8652   4.8548   6.7960   7.2844

          k = 0.0831-0.2398 0.1882 (  4537 PWs)   bands (ev):

   -31.8085 -31.7081 -13.6522 -13.3218 -13.2257 -13.2172 -13.0565 -13.0274
     2.2149   4.4074   6.9467   7.3958

          k = 0.0831-0.2398 0.3137 (  4531 PWs)   bands (ev):

   -31.7766 -31.7397 -13.5786 -13.4594 -13.1718 -13.1371 -13.1090 -13.0591
     2.8506   3.6485   7.2578   7.4493

          k = 0.0831-0.0480 0.0627 (  4522 PWs)   bands (ev):

   -31.8521 -31.6834 -13.7518 -13.2151 -13.2060 -13.0597 -13.0203 -13.0147
     1.1670   4.5345   6.9364   8.7945

          k = 0.0831-0.0480 0.1882 (  4519 PWs)   bands (ev):

   -31.8292 -31.7066 -13.6712 -13.1877 -13.1813 -13.1700 -13.0454 -13.0336
     1.5493   3.9598   7.3950   8.8295

          k = 0.0831-0.0480 0.3137 (  4512 PWs)   bands (ev):

   -31.7904 -31.7455 -13.5246 -13.3429 -13.1383 -13.1361 -13.0886 -13.0799
     2.2402   3.1069   8.0874   8.6556

          k = 0.2492 0.4316 0.0627 (  4525 PWs)   bands (ev):

   -31.7691 -31.7119 -13.5179 -13.4515 -13.3264 -13.3118 -13.1746 -13.0728
     3.6713   5.1770   5.4356   6.5736

          k = 0.2492 0.4316 0.1882 (  4531 PWs)   bands (ev):

   -31.7616 -31.7194 -13.6136 -13.5123 -13.3550 -13.1922 -13.1164 -13.0700
     3.9390   5.2286   5.6230   6.2296

          k = 0.2492 0.4316 0.3137 (  4533 PWs)   bands (ev):

   -31.7482 -31.7324 -13.6509 -13.6115 -13.2890 -13.2017 -13.0767 -13.0343
     4.4150   4.9588   5.8724   6.0137

          k = 0.2492 0.6235 0.0627 (  4532 PWs)   bands (ev):

   -31.7529 -31.7232 -13.4918 -13.4485 -13.3693 -13.2987 -13.2171 -13.0859
     4.2841   4.9144   5.2037   6.5536

          k = 0.2492 0.6235 0.1882 (  4539 PWs)   bands (ev):

   -31.7488 -31.7272 -13.5964 -13.5318 -13.3983 -13.1618 -13.1360 -13.0905
     4.5148   5.1291   5.3613   6.1737

          k = 0.2492 0.6235 0.3137 (  4538 PWs)   bands (ev):

   -31.7418 -31.7335 -13.6521 -13.6284 -13.3192 -13.2233 -13.0599 -13.0354
     4.9198   5.3018   5.5224   5.7307

          k = 0.2492-0.3357 0.0627 (  4521 PWs)   bands (ev):

   -31.7883 -31.7018 -13.5730 -13.4084 -13.3311 -13.2611 -13.1329 -13.0503
     3.0411   5.1532   5.9148   6.6219

          k = 0.2492-0.3357 0.1882 (  4524 PWs)   bands (ev):

   -31.7768 -31.7132 -13.6332 -13.4678 -13.3009 -13.2190 -13.0922 -13.0505
     3.3378   5.0271   6.0708   6.4011

          k = 0.2492-0.3357 0.3137 (  4543 PWs)   bands (ev):

   -31.7570 -31.7339 -13.6414 -13.5792 -13.2427 -13.1669 -13.0999 -13.0402
     3.8741   4.5249   6.2706   6.3552

          k = 0.2492-0.1439 0.0627 (  4530 PWs)   bands (ev):

   -31.8194 -31.6913 -13.6609 -13.3343 -13.2557 -13.2017 -13.0714 -13.0199
     2.0805   4.9327   6.7506   6.9510

          k = 0.2492-0.1439 0.1882 (  4542 PWs)   bands (ev):

   -31.8026 -31.7088 -13.6505 -13.3542 -13.2389 -13.2246 -13.0519 -13.0362
     2.4201   4.5351   6.8057   7.0857

          k = 0.2492-0.1439 0.3137 (  4542 PWs)   bands (ev):

   -31.7727 -31.7388 -13.5965 -13.4898 -13.1703 -13.1423 -13.1071 -13.0629
     3.0379   3.8120   7.0348   7.1709

          k = 0.4154 0.7194 0.0627 (  4538 PWs)   bands (ev):

   -31.7600 -31.7184 -13.5300 -13.4207 -13.3639 -13.3081 -13.2054 -13.0613
     4.3428   4.5745   5.3572   6.5507

          k = 0.4154 0.7194 0.1882 (  4530 PWs)   bands (ev):

   -31.7543 -31.7231 -13.6309 -13.5188 -13.3610 -13.1846 -13.1233 -13.0744
     4.5535   4.8375   5.4707   6.1269

          k = 0.4154 0.7194 0.3137 (  4535 PWs)   bands (ev):

   -31.7443 -31.7329 -13.6710 -13.6310 -13.2822 -13.1929 -13.0793 -13.0402
     4.9466   5.1940   5.5087   5.5652

          k = 0.4154-0.2398 0.0627 (  4547 PWs)   bands (ev):

   -31.7790 -31.7074 -13.5675 -13.4264 -13.3255 -13.3006 -13.1668 -13.0240
     3.5382   4.9956   5.5005   6.5756

          k = 0.4154-0.2398 0.1882 (  4540 PWs)   bands (ev):

   -31.7689 -31.7166 -13.6598 -13.4939 -13.2642 -13.2576 -13.0785 -13.0618
     3.8094   5.1346   5.5176   6.2197

          k = 0.4154-0.2398 0.3137 (  4556 PWs)   bands (ev):

   -31.7525 -31.7336 -13.6794 -13.6187 -13.2008 -13.1309 -13.1267 -13.0644
     4.2957   4.8708   5.6928   5.9588

!    total energy              =    -151.48424809 Ry
     Harris-Foulkes estimate   =    -151.48424809 Ry
     estimated scf accuracy    <          4.9E-09 Ry

     The total energy is the sum of the following terms:

     one-electron contribution =     -45.07301473 Ry
     hartree contribution      =      28.91195921 Ry
     xc contribution           =     -23.66765549 Ry
     ewald contribution        =    -111.65553707 Ry

     convergence has been achieved in  12 iterations

     Forces acting on atoms (Ry/au):

     atom    1 type  2   force =     0.00000000    0.00000000    0.00000000
     atom    2 type  2   force =    -0.00000000   -0.00000000   -0.00000000
     atom    3 type  1   force =     0.00000000    0.00000000   -0.00000000
     atom    4 type  1   force =     0.00000000    0.00000000    0.00000000
     atom    5 type  1   force =     0.00000000    0.00000000    0.00000000
     atom    6 type  1   force =     0.00000000    0.00000000   -0.00000000

     Total force =     0.000000     Total SCF correction =     0.000000


     entering subroutine stress ...

          total   stress  (Ry/bohr**3)                   (kbar)     P=  181.16
   0.00122947  -0.00000000  -0.00000000        180.86     -0.00     -0.00
  -0.00000000   0.00122947   0.00000000         -0.00    180.86      0.00
   0.00000000  -0.00000000   0.00123548          0.00     -0.00    181.75


     Writing output data file CaH2_ambient.save

     init_run     :     39.71s CPU     40.10s WALL (       2 calls)
     electrons    :    493.67s CPU    501.49s WALL (       7 calls)
     update_pot   :    203.42s CPU    204.34s WALL (       5 calls)
     forces       :     85.50s CPU     85.89s WALL (       7 calls)
     stress       :    182.82s CPU    183.55s WALL (       7 calls)

     Called by init_run:
     wfcinit      :      7.91s CPU      8.01s WALL (       2 calls)
     potinit      :     14.39s CPU     14.49s WALL (       2 calls)

     Called by electrons:
     c_bands      :    401.06s CPU    406.62s WALL (      48 calls)
     sum_band     :     79.39s CPU     81.03s WALL (      48 calls)
     v_of_rho     :      7.53s CPU      7.71s WALL (      53 calls)
     mix_rho      :      6.33s CPU      6.72s WALL (      48 calls)

     Called by c_bands:
     init_us_2    :     11.92s CPU     12.77s WALL (    4032 calls)
     cegterg      :    394.99s CPU    397.90s WALL (    1728 calls)

     Called by *egterg:
     h_psi        :    327.32s CPU    329.39s WALL (    5186 calls)
     g_psi        :      2.31s CPU      2.37s WALL (    3386 calls)
     cdiaghg      :      2.34s CPU      2.39s WALL (    4862 calls)

     Called by h_psi:
     add_vuspsi   :      4.89s CPU      4.92s WALL (    5186 calls)

     General routines
     calbec       :      5.30s CPU      5.39s WALL (    5690 calls)
     fft          :      2.20s CPU      2.21s WALL (     641 calls)
     ffts         :      2.70s CPU      2.71s WALL (     793 calls)
     fftw         :    310.54s CPU    312.11s WALL (  130062 calls)
     davcio       :      1.30s CPU      4.13s WALL (    5760 calls)


     PWSCF        : 16m46.02s CPU    16m56.32s WALL


   This run was terminated on:  15:28:13   3Jun2014            

=------------------------------------------------------------------------------=
   JOB DONE.
=------------------------------------------------------------------------------=
