
     Program PWSCF v.5.0.2 (svn rev. 9392) starts on  3Jun2014 at 16: 0:40 

     This program is part of the open-source Quantum ESPRESSO suite
     for quantum simulation of materials; please cite
         "P. Giannozzi et al., J. Phys.:Condens. Matter 21 395502 (2009);
          URL http://www.quantum-espresso.org", 
     in publications or presentations arising from this work. More details at
     http://www.quantum-espresso.org/quote.php

     Serial version

     Current dimensions of program PWSCF are:
     Max number of different atomic species (ntypx) = 10
     Max number of k-points (npk) =  40000
     Max angular momentum in pseudopotentials (lmaxx) =  3
     Waiting for input...
     Reading input from standard input

     G-vector sticks info
     --------------------
     sticks:   dense  smooth     PW     G-vecs:    dense   smooth      PW
     Sum        1039    1039    313                35601    35601    5799



     bravais-lattice index     =            4
     lattice parameter (alat)  =       6.8695  a.u.
     unit-cell volume          =     367.8832 (a.u.)^3
     number of atoms/cell      =            6
     number of atomic types    =            2
     number of electrons       =        24.00
     number of Kohn-Sham states=           12
     kinetic-energy cutoff     =      80.0000  Ry
     charge density cutoff     =     320.0000  Ry
     convergence threshold     =      1.0E-06
     mixing beta               =       0.3000
     number of iterations used =           16  local-TF  mixing
     Exchange-correlation      = PBE ( 1 4 3 4 0)
     EXX-fraction              =        0.00
     nstep                     =           50


     celldm(1)=   6.869500  celldm(2)=   0.000000  celldm(3)=   1.310400
     celldm(4)=   0.000000  celldm(5)=   0.000000  celldm(6)=   0.000000

     crystal axes: (cart. coord. in units of alat)
               a(1) = (   1.000000   0.000000   0.000000 )  
               a(2) = (  -0.500000   0.866025   0.000000 )  
               a(3) = (   0.000000   0.000000   1.310400 )  

     reciprocal axes: (cart. coord. in units 2 pi/alat)
               b(1) = (  1.000000  0.577350 -0.000000 )  
               b(2) = (  0.000000  1.154701  0.000000 )  
               b(3) = (  0.000000 -0.000000  0.763126 )  


     PseudoPot. # 1 for H  read from file:
     /home/ilia/espresso/pseudo/H.pbe-sp-mt.ncpp
     MD5 check sum: 7a641936b52ccecd26bd1ad87cca5aed
     Pseudo is Norm-conserving, Zval =  1.0
     Generated by old ld1 code (numerical format)
     Using radial grid of 1076 points,  0 beta functions with: 

     PseudoPot. # 2 for Ca read from file:
     /home/ilia/espresso/pseudo/Ca.pbe-sp-mt_ion2.ncpp
     MD5 check sum: 4bcd670d05521f7b178fdf0a334578ab
     Pseudo is Norm-conserving, Zval = 10.0
     Generated by old ld1 code (numerical format)
     Using radial grid of 1153 points,  1 beta functions with: 
                l(1) =   1

     atomic species   valence    mass     pseudopotential
        H              1.00     1.00700     H ( 1.00)
        Ca            10.00    40.07800     Ca( 1.00)

     24 Sym. Ops., with inversion, found (12 have fractional translation)



   Cartesian axes

     site n.     atom                  positions (alat units)
         1           Ca  tau(   1) = (   0.0000000   0.5773503   0.3276000  )
         2           Ca  tau(   2) = (   0.5000000   0.2886751   0.9828000  )
         3           H   tau(   3) = (   0.0000000   0.5773503   0.9828000  )
         4           H   tau(   4) = (   0.5000000   0.2886751   0.3276000  )
         5           H   tau(   5) = (   0.0000000   0.0000000   0.0000000  )
         6           H   tau(   6) = (   0.0000000   0.0000000   0.6552000  )

     number of k points=    36
                       cart. coord. in units 2pi/alat
        k(    1) = (   0.0833333   0.1443376   0.0635938), wk =   0.0370370
        k(    2) = (   0.0833333   0.1443376   0.1907814), wk =   0.0370370
        k(    3) = (   0.0833333   0.1443376   0.3179691), wk =   0.0370370
        k(    4) = (   0.0833333   0.3367877   0.0635938), wk =   0.0740741
        k(    5) = (   0.0833333   0.3367877   0.1907814), wk =   0.0740741
        k(    6) = (   0.0833333   0.3367877   0.3179691), wk =   0.0740741
        k(    7) = (   0.0833333   0.5292377   0.0635938), wk =   0.0740741
        k(    8) = (   0.0833333   0.5292377   0.1907814), wk =   0.0740741
        k(    9) = (   0.0833333   0.5292377   0.3179691), wk =   0.0740741
        k(   10) = (   0.0833333  -0.4330127   0.0635938), wk =   0.0740741
        k(   11) = (   0.0833333  -0.4330127   0.1907814), wk =   0.0740741
        k(   12) = (   0.0833333  -0.4330127   0.3179691), wk =   0.0740741
        k(   13) = (   0.0833333  -0.2405626   0.0635938), wk =   0.0740741
        k(   14) = (   0.0833333  -0.2405626   0.1907814), wk =   0.0740741
        k(   15) = (   0.0833333  -0.2405626   0.3179691), wk =   0.0740741
        k(   16) = (   0.0833333  -0.0481125   0.0635938), wk =   0.0370370
        k(   17) = (   0.0833333  -0.0481125   0.1907814), wk =   0.0370370
        k(   18) = (   0.0833333  -0.0481125   0.3179691), wk =   0.0370370
        k(   19) = (   0.2500000   0.4330127   0.0635938), wk =   0.0370370
        k(   20) = (   0.2500000   0.4330127   0.1907814), wk =   0.0370370
        k(   21) = (   0.2500000   0.4330127   0.3179691), wk =   0.0370370
        k(   22) = (   0.2500000   0.6254628   0.0635938), wk =   0.0740741
        k(   23) = (   0.2500000   0.6254628   0.1907814), wk =   0.0740741
        k(   24) = (   0.2500000   0.6254628   0.3179691), wk =   0.0740741
        k(   25) = (   0.2500000  -0.3367877   0.0635938), wk =   0.0740741
        k(   26) = (   0.2500000  -0.3367877   0.1907814), wk =   0.0740741
        k(   27) = (   0.2500000  -0.3367877   0.3179691), wk =   0.0740741
        k(   28) = (   0.2500000  -0.1443376   0.0635938), wk =   0.0370370
        k(   29) = (   0.2500000  -0.1443376   0.1907814), wk =   0.0370370
        k(   30) = (   0.2500000  -0.1443376   0.3179691), wk =   0.0370370
        k(   31) = (   0.4166667   0.7216878   0.0635938), wk =   0.0370370
        k(   32) = (   0.4166667   0.7216878   0.1907814), wk =   0.0370370
        k(   33) = (   0.4166667   0.7216878   0.3179691), wk =   0.0370370
        k(   34) = (   0.4166667  -0.2405626   0.0635938), wk =   0.0370370
        k(   35) = (   0.4166667  -0.2405626   0.1907814), wk =   0.0370370
        k(   36) = (   0.4166667  -0.2405626   0.3179691), wk =   0.0370370

     Dense  grid:    35601 G-vectors     FFT dimensions: (  40,  40,  54)

     Largest allocated arrays     est. size (Mb)     dimensions
        Kohn-Sham Wavefunctions         0.82 Mb     (   4465,   12)
        NL pseudopotentials             0.41 Mb     (   4465,    6)
        Each V/rho on FFT grid          1.32 Mb     (  86400)
        Each G-vector array             0.27 Mb     (  35601)
        G-vector shells                 0.27 Mb     (  35601)
     Largest temporary arrays     est. size (Mb)     dimensions
        Auxiliary wavefunctions         3.27 Mb     (   4465,   48)
        Each subspace H/S matrix        0.04 Mb     (  48,  48)
        Each <psi_i|beta_j> matrix      0.00 Mb     (      6,   12)
        Arrays for rho mixing          21.09 Mb     (  86400,  16)

     Initial potential from superposition of free atoms

     starting charge   19.99996, renormalised to   24.00000
     Starting wfc are   12 randomized atomic wfcs

     total cpu time spent up to now is       33.4 secs

     per-process dynamical memory:    18.0 Mb

     Self-consistent Calculation

     iteration #  1     ecut=    80.00 Ry     beta=0.30
     Davidson diagonalization with overlap
     ethr =  1.00E-02,  avg # of iterations =  2.0

     total cpu time spent up to now is       45.1 secs

     total energy              =    -153.07279251 Ry
     Harris-Foulkes estimate   =    -154.21365382 Ry
     estimated scf accuracy    <       5.60363544 Ry

     iteration #  2     ecut=    80.00 Ry     beta=0.30
     Davidson diagonalization with overlap
     ethr =  1.00E-02,  avg # of iterations =  1.0

     total cpu time spent up to now is       53.5 secs

     total energy              =    -150.83698953 Ry
     Harris-Foulkes estimate   =    -153.13636637 Ry
     estimated scf accuracy    <       3.36085036 Ry

     iteration #  3     ecut=    80.00 Ry     beta=0.30
     Davidson diagonalization with overlap
     ethr =  1.00E-02,  avg # of iterations =  2.0

     total cpu time spent up to now is       65.4 secs

     total energy              =    -151.46406444 Ry
     Harris-Foulkes estimate   =    -151.46887677 Ry
     estimated scf accuracy    <       0.12171909 Ry

     iteration #  4     ecut=    80.00 Ry     beta=0.30
     Davidson diagonalization with overlap
     ethr =  5.07E-04,  avg # of iterations =  1.2

     total cpu time spent up to now is       73.8 secs

     total energy              =    -151.46762627 Ry
     Harris-Foulkes estimate   =    -151.46640676 Ry
     estimated scf accuracy    <       0.07585957 Ry

     iteration #  5     ecut=    80.00 Ry     beta=0.30
     Davidson diagonalization with overlap
     ethr =  3.16E-04,  avg # of iterations =  2.0

     total cpu time spent up to now is       83.1 secs

     total energy              =    -151.47348455 Ry
     Harris-Foulkes estimate   =    -151.47365066 Ry
     estimated scf accuracy    <       0.00214786 Ry

     iteration #  6     ecut=    80.00 Ry     beta=0.30
     Davidson diagonalization with overlap
     ethr =  8.95E-06,  avg # of iterations =  2.1

     total cpu time spent up to now is       92.1 secs

     total energy              =    -151.47376356 Ry
     Harris-Foulkes estimate   =    -151.47362701 Ry
     estimated scf accuracy    <       0.00104735 Ry

     iteration #  7     ecut=    80.00 Ry     beta=0.30
     Davidson diagonalization with overlap
     ethr =  4.36E-06,  avg # of iterations =  2.0

     total cpu time spent up to now is      101.3 secs

     total energy              =    -151.47368567 Ry
     Harris-Foulkes estimate   =    -151.47383291 Ry
     estimated scf accuracy    <       0.00022358 Ry

     iteration #  8     ecut=    80.00 Ry     beta=0.30
     Davidson diagonalization with overlap
     ethr =  9.32E-07,  avg # of iterations =  2.0

     total cpu time spent up to now is      112.8 secs

     total energy              =    -151.47372341 Ry
     Harris-Foulkes estimate   =    -151.47372142 Ry
     estimated scf accuracy    <       0.00000279 Ry

     iteration #  9     ecut=    80.00 Ry     beta=0.30
     Davidson diagonalization with overlap
     ethr =  1.16E-08,  avg # of iterations =  2.8

     total cpu time spent up to now is      125.3 secs

     total energy              =    -151.47372133 Ry
     Harris-Foulkes estimate   =    -151.47372645 Ry
     estimated scf accuracy    <       0.00001100 Ry

     iteration # 10     ecut=    80.00 Ry     beta=0.30
     Davidson diagonalization with overlap
     ethr =  1.16E-08,  avg # of iterations =  2.0

     total cpu time spent up to now is      137.1 secs

     End of self-consistent calculation

          k = 0.0833 0.1443 0.0636 (  4433 PWs)   bands (ev):

   -31.6045 -31.4301 -13.5095 -13.0075 -12.9923 -12.8512 -12.7664 -12.7627
     1.5643   4.8269   7.1756   8.3198

          k = 0.0833 0.1443 0.1908 (  4435 PWs)   bands (ev):

   -31.5814 -31.4538 -13.4435 -12.9928 -12.9630 -12.9500 -12.7964 -12.7655
     1.9481   4.3204   7.4758   8.4049

          k = 0.0833 0.1443 0.3180 (  4455 PWs)   bands (ev):

   -31.5420 -31.4949 -13.3182 -13.1536 -12.9074 -12.8905 -12.8481 -12.8153
     2.6401   3.5004   7.9861   8.3634

          k = 0.0833 0.3368 0.0636 (  4441 PWs)   bands (ev):

   -31.5650 -31.4417 -13.4003 -13.1382 -13.0610 -12.9855 -12.8393 -12.7724
     2.6554   5.2232   6.5935   6.9560

          k = 0.0833 0.3368 0.1908 (  4446 PWs)   bands (ev):

   -31.5484 -31.4583 -13.4281 -13.1786 -13.0200 -12.9899 -12.8135 -12.7780
     2.9870   4.9640   6.7066   6.8791

          k = 0.0833 0.3368 0.3180 (  4452 PWs)   bands (ev):

   -31.5199 -31.4870 -13.4051 -13.3136 -12.9564 -12.8852 -12.8679 -12.7914
     3.5876   4.3279   6.8707   6.9496

          k = 0.0833 0.5292 0.0636 (  4457 PWs)   bands (ev):

   -31.5247 -31.4619 -13.3327 -13.1869 -13.1071 -13.0767 -12.9331 -12.7780
     4.1438   4.8981   5.5777   6.7989

          k = 0.0833 0.5292 0.1908 (  4454 PWs)   bands (ev):

   -31.5162 -31.4696 -13.4411 -13.2842 -13.0737 -12.9747 -12.8396 -12.8066
     4.4001   5.1417   5.6477   6.3446

          k = 0.0833 0.5292 0.3180 (  4444 PWs)   bands (ev):

   -31.5010 -31.4837 -13.4726 -13.4157 -12.9923 -12.9044 -12.8501 -12.7901
     4.8552   5.3526   5.6060   5.9050

          k = 0.0833-0.4330 0.0636 (  4446 PWs)   bands (ev):

   -31.5420 -31.4517 -13.3473 -13.1918 -13.0806 -13.0476 -12.8923 -12.7758
     3.3855   5.3047   5.8606   6.8539

          k = 0.0833-0.4330 0.1908 (  4453 PWs)   bands (ev):

   -31.5300 -31.4636 -13.4326 -13.2490 -13.0540 -12.9852 -12.8262 -12.7959
     3.6822   5.2870   5.9805   6.5531

          k = 0.0833-0.4330 0.3180 (  4446 PWs)   bands (ev):

   -31.5089 -31.4838 -13.4474 -13.3795 -12.9792 -12.8966 -12.8585 -12.7891
     4.2158   4.8549   6.2109   6.4016

          k = 0.0833-0.2406 0.0636 (  4445 PWs)   bands (ev):

   -31.5873 -31.4349 -13.4613 -13.0632 -13.0299 -12.9170 -12.7930 -12.7690
     2.0265   5.0258   7.0726   7.4478

          k = 0.0833-0.2406 0.1908 (  4435 PWs)   bands (ev):

   -31.5668 -31.4549 -13.4334 -13.0853 -12.9837 -12.9791 -12.8037 -12.7651
     2.3880   4.6095   7.1761   7.5724

          k = 0.0833-0.2406 0.3180 (  4447 PWs)   bands (ev):

   -31.5318 -31.4908 -13.3578 -13.2318 -12.9300 -12.8857 -12.8615 -12.8003
     3.0422   3.8556   7.4642   7.6438

          k = 0.0833-0.0481 0.0636 (  4430 PWs)   bands (ev):

   -31.6138 -31.4283 -13.5357 -12.9786 -12.9695 -12.8043 -12.7656 -12.7516
     1.3194   4.7053   7.2332   8.9760

          k = 0.0833-0.0481 0.1908 (  4422 PWs)   bands (ev):

   -31.5890 -31.4532 -13.4509 -12.9476 -12.9423 -12.9196 -12.7931 -12.7766
     1.7153   4.1596   7.6503   9.0287

          k = 0.0833-0.0481 0.3180 (  4450 PWs)   bands (ev):

   -31.5472 -31.4973 -13.2960 -13.1030 -12.8952 -12.8913 -12.8406 -12.8289
     2.4268   3.3101   8.3230   8.8787

          k = 0.2500 0.4330 0.0636 (  4434 PWs)   bands (ev):

   -31.5244 -31.4608 -13.2900 -13.2275 -13.0878 -13.0736 -12.9220 -12.8165
     3.8450   5.3470   5.5953   6.8153

          k = 0.2500 0.4330 0.1908 (  4442 PWs)   bands (ev):

   -31.5160 -31.4691 -13.3961 -13.2888 -13.1247 -12.9403 -12.8647 -12.8086
     4.1216   5.4218   5.7947   6.4454

          k = 0.2500 0.4330 0.3180 (  4447 PWs)   bands (ev):

   -31.5011 -31.4837 -13.4377 -13.3957 -13.0529 -12.9570 -12.8160 -12.7698
     4.6124   5.1692   6.0600   6.2077

          k = 0.2500 0.6255 0.0636 (  4440 PWs)   bands (ev):

   -31.5065 -31.4733 -13.2674 -13.2205 -13.1337 -13.0574 -12.9676 -12.8296
     4.4557   5.0850   5.3689   6.7890

          k = 0.2500 0.6255 0.1908 (  4450 PWs)   bands (ev):

   -31.5021 -31.4777 -13.3783 -13.3092 -13.1709 -12.9077 -12.8837 -12.8309
     4.6942   5.3140   5.5419   6.3924

          k = 0.2500 0.6255 0.3180 (  4441 PWs)   bands (ev):

   -31.4937 -31.4850 -13.4393 -13.4139 -13.0846 -12.9796 -12.7971 -12.7706
     5.1135   5.5112   5.7150   5.9273

          k = 0.2500-0.3368 0.0636 (  4442 PWs)   bands (ev):

   -31.5458 -31.4497 -13.3478 -13.1808 -13.0954 -13.0204 -12.8769 -12.7939
     3.2127   5.3231   6.0724   6.8735

          k = 0.2500-0.3368 0.1908 (  4438 PWs)   bands (ev):

   -31.5328 -31.4620 -13.4163 -13.2412 -13.0671 -12.9709 -12.8397 -12.7883
     3.5190   5.2262   6.2416   6.6144

          k = 0.2500-0.3368 0.3180 (  4444 PWs)   bands (ev):

   -31.5104 -31.4843 -13.4272 -13.3609 -13.0041 -12.9203 -12.8425 -12.7769
     4.0708   4.7353   6.4572   6.5484

          k = 0.2500-0.1443 0.0636 (  4444 PWs)   bands (ev):

   -31.5794 -31.4371 -13.4400 -13.1016 -13.0224 -12.9553 -12.8104 -12.7637
     2.2441   5.1034   7.0159   7.1184

          k = 0.2500-0.1443 0.1908 (  4445 PWs)   bands (ev):

   -31.5605 -31.4561 -13.4325 -13.1194 -12.9958 -12.9882 -12.7989 -12.7733
     2.5950   4.7372   7.0268   7.2631

          k = 0.2500-0.1443 0.3180 (  4452 PWs)   bands (ev):

   -31.5276 -31.4894 -13.3776 -13.2647 -12.9287 -12.8896 -12.8594 -12.8028
     3.2306   4.0198   7.2361   7.3628

          k = 0.4167 0.7217 0.0636 (  4450 PWs)   bands (ev):

   -31.5146 -31.4680 -13.3066 -13.1902 -13.1266 -13.0713 -12.9538 -12.8048
     4.5152   4.7488   5.5149   6.7895

          k = 0.4167 0.7217 0.1908 (  4439 PWs)   bands (ev):

   -31.5076 -31.4736 -13.4152 -13.2947 -13.1307 -12.9331 -12.8690 -12.8153
     4.7323   5.0253   5.6455   6.3483

          k = 0.4167 0.7217 0.3180 (  4442 PWs)   bands (ev):

   -31.4966 -31.4842 -13.4592 -13.4162 -13.0454 -12.9477 -12.8183 -12.7759
     5.1394   5.4029   5.7020   5.7605

          k = 0.4167-0.2406 0.0636 (  4457 PWs)   bands (ev):

   -31.5350 -31.4557 -13.3445 -13.1932 -13.0850 -13.0699 -12.9119 -12.7668
     3.7117   5.1722   5.6499   6.8232

          k = 0.4167-0.2406 0.1908 (  4465 PWs)   bands (ev):

   -31.5242 -31.4666 -13.4457 -13.2675 -13.0302 -13.0099 -12.8161 -12.8083
     3.9914   5.3303   5.6867   6.4354

          k = 0.4167-0.2406 0.3180 (  4445 PWs)   bands (ev):

   -31.5052 -31.4838 -13.4678 -13.4026 -12.9607 -12.8795 -12.8727 -12.8008
     4.4917   5.0801   5.8795   6.1533

!    total energy              =    -151.47372293 Ry
     Harris-Foulkes estimate   =    -151.47372295 Ry
     estimated scf accuracy    <       0.00000006 Ry

     The total energy is the sum of the following terms:

     one-electron contribution =     -43.98543225 Ry
     hartree contribution      =      28.58806407 Ry
     xc contribution           =     -23.69889745 Ry
     ewald contribution        =    -112.37745729 Ry

     convergence has been achieved in  10 iterations

     Forces acting on atoms (Ry/au):

     atom    1 type  2   force =     0.00000000   -0.00000000    0.00000000
     atom    2 type  2   force =     0.00000000    0.00000000    0.00000000
     atom    3 type  1   force =    -0.00000000    0.00000000    0.00000000
     atom    4 type  1   force =     0.00000000   -0.00000000   -0.00000000
     atom    5 type  1   force =    -0.00000000   -0.00000000   -0.00000000
     atom    6 type  1   force =     0.00000000    0.00000000   -0.00000000

     Total force =     0.000000     Total SCF correction =     0.000000


     entering subroutine stress ...

          total   stress  (Ry/bohr**3)                   (kbar)     P=  201.96
   0.00134506  -0.00000000   0.00000000        197.87     -0.00      0.00
  -0.00000000   0.00134506   0.00000000         -0.00    197.87      0.00
   0.00000000   0.00000000   0.00142857          0.00      0.00    210.15


     BFGS Geometry Optimization

     number of scf cycles    =   1
     number of bfgs steps    =   0

     enthalpy new            =    -149.9732313742 Ry

     new trust radius        =       0.2621613416 bohr
     new conv_thr            =       0.0000010000 Ry

     new unit-cell volume =    298.16211 a.u.^3 (    44.18307 Ang^3 )

CELL_PARAMETERS (alat=  6.86950000)
   0.931658625  -0.000000000   0.000000000
  -0.465829313   0.806840037   0.000000000
   0.000000000   0.000000000   1.223581254

ATOMIC_POSITIONS (crystal)
Ca       0.333333333   0.666666667   0.250000000
Ca       0.666666667   0.333333333   0.750000000
H        0.333333333   0.666666667   0.750000000
H        0.666666667   0.333333333   0.250000000
H       -0.000000000  -0.000000000  -0.000000000
H        0.000000000   0.000000000   0.500000000



     Writing output data file CaH2_ambient.save
     NEW-OLD atomic charge density approx. for the potential
     NEW k-points:
        k(    1) = (   0.0894462   0.1549254   0.0681061), wk =   0.0370370
        k(    2) = (   0.0894462   0.1549254   0.2043183), wk =   0.0370370
        k(    3) = (   0.0894462   0.1549254   0.3405304), wk =   0.0370370
        k(    4) = (   0.0894462   0.3614926   0.0681061), wk =   0.0740741
        k(    5) = (   0.0894462   0.3614926   0.2043183), wk =   0.0740741
        k(    6) = (   0.0894462   0.3614926   0.3405304), wk =   0.0740741
        k(    7) = (   0.0894462   0.5680597   0.0681061), wk =   0.0740741
        k(    8) = (   0.0894462   0.5680597   0.2043183), wk =   0.0740741
        k(    9) = (   0.0894462   0.5680597   0.3405304), wk =   0.0740741
        k(   10) = (   0.0894462  -0.4647761   0.0681061), wk =   0.0740741
        k(   11) = (   0.0894462  -0.4647761   0.2043183), wk =   0.0740741
        k(   12) = (   0.0894462  -0.4647761   0.3405304), wk =   0.0740741
        k(   13) = (   0.0894462  -0.2582090   0.0681061), wk =   0.0740741
        k(   14) = (   0.0894462  -0.2582090   0.2043183), wk =   0.0740741
        k(   15) = (   0.0894462  -0.2582090   0.3405304), wk =   0.0740741
        k(   16) = (   0.0894462  -0.0516418   0.0681061), wk =   0.0370370
        k(   17) = (   0.0894462  -0.0516418   0.2043183), wk =   0.0370370
        k(   18) = (   0.0894462  -0.0516418   0.3405304), wk =   0.0370370
        k(   19) = (   0.2683386   0.4647761   0.0681061), wk =   0.0370370
        k(   20) = (   0.2683386   0.4647761   0.2043183), wk =   0.0370370
        k(   21) = (   0.2683386   0.4647761   0.3405304), wk =   0.0370370
        k(   22) = (   0.2683386   0.6713433   0.0681061), wk =   0.0740741
        k(   23) = (   0.2683386   0.6713433   0.2043183), wk =   0.0740741
        k(   24) = (   0.2683386   0.6713433   0.3405304), wk =   0.0740741
        k(   25) = (   0.2683386  -0.3614926   0.0681061), wk =   0.0740741
        k(   26) = (   0.2683386  -0.3614926   0.2043183), wk =   0.0740741
        k(   27) = (   0.2683386  -0.3614926   0.3405304), wk =   0.0740741
        k(   28) = (   0.2683386  -0.1549254   0.0681061), wk =   0.0370370
        k(   29) = (   0.2683386  -0.1549254   0.2043183), wk =   0.0370370
        k(   30) = (   0.2683386  -0.1549254   0.3405304), wk =   0.0370370
        k(   31) = (   0.4472311   0.7746269   0.0681061), wk =   0.0370370
        k(   32) = (   0.4472311   0.7746269   0.2043183), wk =   0.0370370
        k(   33) = (   0.4472311   0.7746269   0.3405304), wk =   0.0370370
        k(   34) = (   0.4472311  -0.2582090   0.0681061), wk =   0.0370370
        k(   35) = (   0.4472311  -0.2582090   0.2043183), wk =   0.0370370
        k(   36) = (   0.4472311  -0.2582090   0.3405304), wk =   0.0370370
     extrapolated charge   19.32329, renormalised to   24.00000

     total cpu time spent up to now is      222.4 secs

     per-process dynamical memory:    23.0 Mb

     Self-consistent Calculation

     iteration #  1     ecut=    80.00 Ry     beta=0.30
     Davidson diagonalization with overlap
     ethr =  1.00E-06,  avg # of iterations =  7.6

     total cpu time spent up to now is      244.6 secs

     total energy              =    -150.86323931 Ry
     Harris-Foulkes estimate   =    -154.79944341 Ry
     estimated scf accuracy    <       1.61834739 Ry

     iteration #  2     ecut=    80.00 Ry     beta=0.30
     Davidson diagonalization with overlap
     ethr =  6.74E-03,  avg # of iterations =  2.1

     total cpu time spent up to now is      256.5 secs

     total energy              =    -151.34668877 Ry
     Harris-Foulkes estimate   =    -151.41787031 Ry
     estimated scf accuracy    <       0.22225574 Ry

     iteration #  3     ecut=    80.00 Ry     beta=0.30
     Davidson diagonalization with overlap
     ethr =  9.26E-04,  avg # of iterations =  1.0

     total cpu time spent up to now is      264.9 secs

     total energy              =    -151.27515090 Ry
     Harris-Foulkes estimate   =    -151.35252916 Ry
     estimated scf accuracy    <       0.09934389 Ry

     iteration #  4     ecut=    80.00 Ry     beta=0.30
     Davidson diagonalization with overlap
     ethr =  4.14E-04,  avg # of iterations =  2.0

     total cpu time spent up to now is      277.0 secs

     total energy              =    -151.30239322 Ry
     Harris-Foulkes estimate   =    -151.30566314 Ry
     estimated scf accuracy    <       0.00892268 Ry

     iteration #  5     ecut=    80.00 Ry     beta=0.30
     Davidson diagonalization with overlap
     ethr =  3.72E-05,  avg # of iterations =  2.0

     total cpu time spent up to now is      287.7 secs

     total energy              =    -151.30355065 Ry
     Harris-Foulkes estimate   =    -151.30370226 Ry
     estimated scf accuracy    <       0.00024945 Ry

     iteration #  6     ecut=    80.00 Ry     beta=0.30
     Davidson diagonalization with overlap
     ethr =  1.04E-06,  avg # of iterations =  2.0

     total cpu time spent up to now is      299.6 secs

     total energy              =    -151.30361618 Ry
     Harris-Foulkes estimate   =    -151.30361719 Ry
     estimated scf accuracy    <       0.00002779 Ry

     iteration #  7     ecut=    80.00 Ry     beta=0.30
     Davidson diagonalization with overlap
     ethr =  1.16E-07,  avg # of iterations =  1.5

     total cpu time spent up to now is      308.2 secs

     total energy              =    -151.30361809 Ry
     Harris-Foulkes estimate   =    -151.30361764 Ry
     estimated scf accuracy    <       0.00000476 Ry

     iteration #  8     ecut=    80.00 Ry     beta=0.30
     Davidson diagonalization with overlap
     ethr =  1.98E-08,  avg # of iterations =  2.0

     total cpu time spent up to now is      317.5 secs

     End of self-consistent calculation

          k = 0.0894 0.1549 0.0681 (  4433 PWs)   bands (ev):

   -28.8041 -28.4255 -10.9762 -10.1410 -10.1069  -9.8612  -9.7054  -9.6332
     3.5732   6.8628   9.8144  10.7980

          k = 0.0894 0.1549 0.2043 (  4435 PWs)   bands (ev):

   -28.7545 -28.4774 -10.8669 -10.1055 -10.0564 -10.0194  -9.7588  -9.6672
     4.0379   6.5395   9.9086  10.9054

          k = 0.0894 0.1549 0.3405 (  4455 PWs)   bands (ev):

   -28.6680 -28.5665 -10.6556 -10.3735  -9.9538  -9.9181  -9.8501  -9.7724
     4.8454   5.7817  10.3732  10.8374

          k = 0.0894 0.3615 0.0681 (  4441 PWs)   bands (ev):

   -28.7131 -28.4457 -10.7854 -10.4180 -10.2507 -10.1110  -9.7764  -9.7186
     4.9153   7.4403   8.8269   9.3057

          k = 0.0894 0.3615 0.2043 (  4446 PWs)   bands (ev):

   -28.6773 -28.4816 -10.8662 -10.4698 -10.1606 -10.1052  -9.7930  -9.6865
     5.2858   7.3347   8.9752   9.1095

          k = 0.0894 0.3615 0.3405 (  4452 PWs)   bands (ev):

   -28.6153 -28.5436 -10.8445 -10.6951 -10.0516  -9.9193  -9.8733  -9.7189
     5.9474   6.7413   9.1313   9.2320

          k = 0.0894 0.5681 0.0681 (  4457 PWs)   bands (ev):

   -28.6211 -28.4856 -10.7589 -10.4428 -10.3411 -10.2684  -9.9586  -9.7314
     6.5262   7.3258   7.7108   8.9517

          k = 0.0894 0.5681 0.2043 (  4454 PWs)   bands (ev):

   -28.6021 -28.5028 -10.9368 -10.6550 -10.2655 -10.0638  -9.8312  -9.7546
     6.7611   7.5695   7.9347   8.5517

          k = 0.0894 0.5681 0.3405 (  4444 PWs)   bands (ev):

   -28.5698 -28.5333 -10.9917 -10.8901 -10.1229  -9.9633  -9.8298  -9.7149
     7.1706   7.6286   8.1319   8.2914

          k = 0.0894-0.4648 0.0681 (  4446 PWs)   bands (ev):

   -28.6602 -28.4655 -10.7284 -10.4980 -10.2911 -10.2207  -9.8773  -9.7265
     5.7424   7.6346   8.0269   9.0771

          k = 0.0894-0.4648 0.2043 (  4453 PWs)   bands (ev):

   -28.6337 -28.4911 -10.9009 -10.5966 -10.2271 -10.0896  -9.8134  -9.7252
     6.0519   7.7013   8.2403   8.7393

          k = 0.0894-0.4648 0.3405 (  4446 PWs)   bands (ev):

   -28.5880 -28.5355 -10.9365 -10.8221 -10.0970  -9.9469  -9.8482  -9.7133
     6.6050   7.2726   8.5459   8.6783

          k = 0.0894-0.2582 0.0681 (  4445 PWs)   bands (ev):

   -28.7644 -28.4327 -10.8898 -10.2613 -10.1868  -9.9856  -9.7122  -9.6887
     4.1559   7.1497   9.5765   9.7703

          k = 0.0894-0.2582 0.2043 (  4435 PWs)   bands (ev):

   -28.7205 -28.4775 -10.8575 -10.2898 -10.0950 -10.0812  -9.7740  -9.6624
     4.5795   6.9067   9.4926   9.9265

          k = 0.0894-0.2582 0.3405 (  4447 PWs)   bands (ev):

   -28.6442 -28.5552 -10.7420 -10.5329  -9.9988  -9.9063  -9.8767  -9.7385
     5.3261   6.2072   9.7509   9.9983

          k = 0.0894-0.0516 0.0681 (  4430 PWs)   bands (ev):

   -28.8257 -28.4228 -11.0234 -10.0798 -10.0587  -9.7693  -9.7034  -9.6114
     3.2563   6.6876   9.9501  11.6229

          k = 0.0894-0.0516 0.2043 (  4422 PWs)   bands (ev):

   -28.7731 -28.4781 -10.8770 -10.0237 -10.0117  -9.9454  -9.7515  -9.6964
     3.7440   6.3299  10.1669  11.6902

          k = 0.0894-0.0516 0.3405 (  4450 PWs)   bands (ev):

   -28.6812 -28.5732 -10.6069 -10.2666  -9.9298  -9.9212  -9.8346  -9.8051
     4.5839   5.5471  10.8039  11.4816

          k = 0.2683 0.4648 0.0681 (  4434 PWs)   bands (ev):

   -28.6221 -28.4842 -10.6096 -10.5948 -10.2951 -10.2604  -9.9422  -9.8114
     6.2513   7.7217   7.8340   8.9483

          k = 0.2683 0.4648 0.2043 (  4442 PWs)   bands (ev):

   -28.6029 -28.5019 -10.8259 -10.6747 -10.3696 -10.0040  -9.9011  -9.7454
     6.5354   7.9180   8.0970   8.5725

          k = 0.2683 0.4648 0.3405 (  4447 PWs)   bands (ev):

   -28.5701 -28.5331 -10.9118 -10.8465 -10.2518 -10.0756  -9.7659  -9.6763
     7.0391   7.6462   8.4271   8.4919

          k = 0.2683 0.6713 0.0681 (  4440 PWs)   bands (ev):

   -28.5816 -28.5107 -10.6551 -10.5124 -10.3701 -10.2235 -10.0343  -9.8388
     6.8130   7.5007   7.7271   8.8613

          k = 0.2683 0.6713 0.2043 (  4450 PWs)   bands (ev):

   -28.5712 -28.5192 -10.8069 -10.6915 -10.4711  -9.9573  -9.9211  -9.7905
     7.0379   7.8077   7.9993   8.5138

          k = 0.2683 0.6713 0.3405 (  4441 PWs)   bands (ev):

   -28.5535 -28.5346 -10.9170 -10.8740 -10.3200 -10.1246  -9.7290  -9.6781
     7.4424   7.9519   8.2177   8.3182

          k = 0.2683-0.3615 0.0681 (  4442 PWs)   bands (ev):

   -28.6695 -28.4613 -10.7005 -10.5008 -10.3209 -10.1663  -9.8513  -9.7641
     5.5635   7.6220   8.2788   9.1096

          k = 0.2683-0.3615 0.2043 (  4438 PWs)   bands (ev):

   -28.6412 -28.4886 -10.8551 -10.5894 -10.2524 -10.0648  -9.8487  -9.7063
     5.8931   7.6611   8.5020   8.7836

          k = 0.2683-0.3615 0.3405 (  4444 PWs)   bands (ev):

   -28.5924 -28.5365 -10.8903 -10.7846 -10.1493  -9.9970  -9.8185  -9.6902
     6.4828   7.1933   8.7527   8.7996

          k = 0.2683-0.1549 0.0681 (  4444 PWs)   bands (ev):

   -28.7464 -28.4367 -10.8526 -10.3436 -10.1619 -10.0686  -9.7203  -9.7005
     4.4213   7.2588   9.3816   9.4834

          k = 0.2683-0.1549 0.2043 (  4445 PWs)   bands (ev):

   -28.7053 -28.4785 -10.8630 -10.3551 -10.1173 -10.1017  -9.7640  -9.6764
     4.8255   7.0596   9.3129   9.5733

          k = 0.2683-0.1549 0.3405 (  4452 PWs)   bands (ev):

   -28.6338 -28.5508 -10.7857 -10.5990  -9.9963  -9.9117  -9.8727  -9.7418
     5.5419   6.3934   9.5046   9.6860

          k = 0.4472 0.7746 0.0681 (  4450 PWs)   bands (ev):

   -28.5984 -28.4993 -10.7205 -10.4463 -10.3718 -10.2552 -10.0034  -9.7869
     6.8464   7.2350   7.7452   8.8945

          k = 0.4472 0.7746 0.2043 (  4439 PWs)   bands (ev):

   -28.5840 -28.5115 -10.8872 -10.6662 -10.3836  -9.9849  -9.9003  -9.7662
     7.0391   7.5531   7.9989   8.5161

          k = 0.4472 0.7746 0.3405 (  4442 PWs)   bands (ev):

   -28.5601 -28.5335 -10.9621 -10.8846 -10.2345 -10.0547  -9.7689  -9.6881
     7.4051   7.8277   8.1395   8.2255

          k = 0.4472-0.2582 0.0681 (  4457 PWs)   bands (ev):

   -28.6432 -28.4738 -10.7578 -10.4723 -10.3063 -10.2533  -9.9146  -9.7082
     6.0827   7.6461   7.6791   9.0188

          k = 0.4472-0.2582 0.2043 (  4465 PWs)   bands (ev):

   -28.6199 -28.4959 -10.9388 -10.6282 -10.1830 -10.1300  -9.7841  -9.7566
     6.3589   7.7453   7.9364   8.6414

          k = 0.4472-0.2582 0.3405 (  4445 PWs)   bands (ev):

   -28.5797 -28.5343 -10.9813 -10.8675 -10.0592  -9.9133  -9.8731  -9.7343
     6.8474   7.4291   8.2923   8.4778

!    total energy              =    -151.30361866 Ry
     Harris-Foulkes estimate   =    -151.30361862 Ry
     estimated scf accuracy    <       0.00000006 Ry

     The total energy is the sum of the following terms:

     one-electron contribution =     -31.80764737 Ry
     hartree contribution      =      25.13207088 Ry
     xc contribution           =     -24.09321798 Ry
     ewald contribution        =    -120.53482420 Ry

     convergence has been achieved in   8 iterations

     Forces acting on atoms (Ry/au):

     atom    1 type  2   force =     0.00000000    0.00000000    0.00000000
     atom    2 type  2   force =    -0.00000000   -0.00000000    0.00000000
     atom    3 type  1   force =     0.00000000   -0.00000000   -0.00000000
     atom    4 type  1   force =    -0.00000000   -0.00000000    0.00000000
     atom    5 type  1   force =     0.00000000    0.00000000    0.00000000
     atom    6 type  1   force =    -0.00000000   -0.00000000    0.00000000

     Total force =     0.000000     Total SCF correction =     0.000000


     entering subroutine stress ...

          total   stress  (Ry/bohr**3)                   (kbar)     P=  564.02
   0.00400604  -0.00000000   0.00000000        589.31     -0.00      0.00
  -0.00000000   0.00400604   0.00000000         -0.00    589.31      0.00
   0.00000000  -0.00000000   0.00349037          0.00     -0.00    513.45


     number of scf cycles    =   2
     number of bfgs steps    =   1

     enthalpy old            =    -149.9732313742 Ry
     enthalpy new            =    -150.0874995765 Ry

     CASE: enthalpy_new < enthalpy_old

     new trust radius        =       0.0529771257 bohr
     new conv_thr            =       0.0000000100 Ry

     new unit-cell volume =    292.19384 a.u.^3 (    43.29866 Ang^3 )

CELL_PARAMETERS (alat=  6.86950000)
   0.929443556  -0.000000000   0.000000000
  -0.464721778   0.804921731  -0.000000000
   0.000000000   0.000000000   1.204811223

ATOMIC_POSITIONS (crystal)
Ca       0.333333333   0.666666667   0.250000000
Ca       0.666666667   0.333333333   0.750000000
H        0.333333333   0.666666667   0.750000000
H        0.666666667   0.333333333   0.250000000
H        0.000000000   0.000000000   0.000000000
H       -0.000000000  -0.000000000   0.500000000



     Writing output data file CaH2_ambient.save
     NEW-OLD atomic charge density approx. for the potential
     NEW k-points:
        k(    1) = (   0.0896594   0.1552946   0.0691671), wk =   0.0370370
        k(    2) = (   0.0896594   0.1552946   0.2075014), wk =   0.0370370
        k(    3) = (   0.0896594   0.1552946   0.3458356), wk =   0.0370370
        k(    4) = (   0.0896594   0.3623541   0.0691671), wk =   0.0740741
        k(    5) = (   0.0896594   0.3623541   0.2075014), wk =   0.0740741
        k(    6) = (   0.0896594   0.3623541   0.3458356), wk =   0.0740741
        k(    7) = (   0.0896594   0.5694135   0.0691671), wk =   0.0740741
        k(    8) = (   0.0896594   0.5694135   0.2075014), wk =   0.0740741
        k(    9) = (   0.0896594   0.5694135   0.3458356), wk =   0.0740741
        k(   10) = (   0.0896594  -0.4658838   0.0691671), wk =   0.0740741
        k(   11) = (   0.0896594  -0.4658838   0.2075014), wk =   0.0740741
        k(   12) = (   0.0896594  -0.4658838   0.3458356), wk =   0.0740741
        k(   13) = (   0.0896594  -0.2588243   0.0691671), wk =   0.0740741
        k(   14) = (   0.0896594  -0.2588243   0.2075014), wk =   0.0740741
        k(   15) = (   0.0896594  -0.2588243   0.3458356), wk =   0.0740741
        k(   16) = (   0.0896594  -0.0517649   0.0691671), wk =   0.0370370
        k(   17) = (   0.0896594  -0.0517649   0.2075014), wk =   0.0370370
        k(   18) = (   0.0896594  -0.0517649   0.3458356), wk =   0.0370370
        k(   19) = (   0.2689781   0.4658838   0.0691671), wk =   0.0370370
        k(   20) = (   0.2689781   0.4658838   0.2075014), wk =   0.0370370
        k(   21) = (   0.2689781   0.4658838   0.3458356), wk =   0.0370370
        k(   22) = (   0.2689781   0.6729433   0.0691671), wk =   0.0740741
        k(   23) = (   0.2689781   0.6729433   0.2075014), wk =   0.0740741
        k(   24) = (   0.2689781   0.6729433   0.3458356), wk =   0.0740741
        k(   25) = (   0.2689781  -0.3623541   0.0691671), wk =   0.0740741
        k(   26) = (   0.2689781  -0.3623541   0.2075014), wk =   0.0740741
        k(   27) = (   0.2689781  -0.3623541   0.3458356), wk =   0.0740741
        k(   28) = (   0.2689781  -0.1552946   0.0691671), wk =   0.0370370
        k(   29) = (   0.2689781  -0.1552946   0.2075014), wk =   0.0370370
        k(   30) = (   0.2689781  -0.1552946   0.3458356), wk =   0.0370370
        k(   31) = (   0.4482969   0.7764730   0.0691671), wk =   0.0370370
        k(   32) = (   0.4482969   0.7764730   0.2075014), wk =   0.0370370
        k(   33) = (   0.4482969   0.7764730   0.3458356), wk =   0.0370370
        k(   34) = (   0.4482969  -0.2588243   0.0691671), wk =   0.0370370
        k(   35) = (   0.4482969  -0.2588243   0.2075014), wk =   0.0370370
        k(   36) = (   0.4482969  -0.2588243   0.3458356), wk =   0.0370370
     extrapolated charge   23.59149, renormalised to   24.00000

     total cpu time spent up to now is      403.0 secs

     per-process dynamical memory:    23.0 Mb

     Self-consistent Calculation

     iteration #  1     ecut=    80.00 Ry     beta=0.30
     Davidson diagonalization with overlap
     ethr =  1.00E-06,  avg # of iterations =  4.1

     total cpu time spent up to now is      420.2 secs

     total energy              =    -151.27593577 Ry
     Harris-Foulkes estimate   =    -151.59002110 Ry
     estimated scf accuracy    <       0.00854474 Ry

     iteration #  2     ecut=    80.00 Ry     beta=0.30
     Davidson diagonalization with overlap
     ethr =  3.56E-05,  avg # of iterations =  2.0

     total cpu time spent up to now is      432.3 secs

     total energy              =    -151.28102666 Ry
     Harris-Foulkes estimate   =    -151.28111744 Ry
     estimated scf accuracy    <       0.00039750 Ry

     iteration #  3     ecut=    80.00 Ry     beta=0.30
     Davidson diagonalization with overlap
     ethr =  1.66E-06,  avg # of iterations =  1.0

     total cpu time spent up to now is      440.6 secs

     total energy              =    -151.28087775 Ry
     Harris-Foulkes estimate   =    -151.28103527 Ry
     estimated scf accuracy    <       0.00023018 Ry

     iteration #  4     ecut=    80.00 Ry     beta=0.30
     Davidson diagonalization with overlap
     ethr =  9.59E-07,  avg # of iterations =  2.1

     total cpu time spent up to now is      452.3 secs

     total energy              =    -151.28093325 Ry
     Harris-Foulkes estimate   =    -151.28093350 Ry
     estimated scf accuracy    <       0.00000721 Ry

     iteration #  5     ecut=    80.00 Ry     beta=0.30
     Davidson diagonalization with overlap
     ethr =  3.00E-08,  avg # of iterations =  1.2

     total cpu time spent up to now is      460.8 secs

     total energy              =    -151.28093362 Ry
     Harris-Foulkes estimate   =    -151.28093348 Ry
     estimated scf accuracy    <       0.00000224 Ry

     iteration #  6     ecut=    80.00 Ry     beta=0.30
     Davidson diagonalization with overlap
     ethr =  9.33E-09,  avg # of iterations =  1.2

     total cpu time spent up to now is      469.2 secs

     total energy              =    -151.28093370 Ry
     Harris-Foulkes estimate   =    -151.28093370 Ry
     estimated scf accuracy    <       0.00000002 Ry

     iteration #  7     ecut=    80.00 Ry     beta=0.30
     Davidson diagonalization with overlap
     ethr =  7.51E-11,  avg # of iterations =  3.0

     total cpu time spent up to now is      479.7 secs

     End of self-consistent calculation

          k = 0.0897 0.1553 0.0692 (  4433 PWs)   bands (ev):

   -28.5441 -28.1258 -10.7425  -9.8785  -9.8460  -9.5696  -9.4051  -9.3179
     3.7974   7.0638  10.2052  10.9980

          k = 0.0897 0.1553 0.2075 (  4435 PWs)   bands (ev):

   -28.4893 -28.1831 -10.6312  -9.8350  -9.7843  -9.7471  -9.4638  -9.3561
     4.2809   6.7953  10.2267  11.1290

          k = 0.0897 0.1553 0.3458 (  4455 PWs)   bands (ev):

   -28.3937 -28.2815 -10.4127 -10.1161  -9.6784  -9.6313  -9.5645  -9.4714
     5.1147   6.0653  10.6475  11.0929

          k = 0.0897 0.3624 0.0692 (  4441 PWs)   bands (ev):

   -28.4462 -28.1507 -10.5450 -10.1622  -9.9900  -9.8346  -9.4701  -9.4148
     5.1521   7.6432   9.0227   9.6538

          k = 0.0897 0.3624 0.2075 (  4446 PWs)   bands (ev):

   -28.4065 -28.1902 -10.6385 -10.2165  -9.8959  -9.8244  -9.4962  -9.3709
     5.5355   7.5926   9.2104   9.3732

          k = 0.0897 0.3624 0.3458 (  4452 PWs)   bands (ev):

   -28.3379 -28.2587 -10.6191 -10.4598  -9.7797  -9.6326  -9.5728  -9.4045
     6.2171   7.0267   9.3799   9.4755

          k = 0.0897 0.5694 0.0692 (  4457 PWs)   bands (ev):

   -28.3464 -28.1967 -10.5204 -10.1826 -10.0686 -10.0119  -9.6623  -9.4259
     6.7534   7.5467   7.9131   9.2743

          k = 0.0897 0.5694 0.2075 (  4454 PWs)   bands (ev):

   -28.3253 -28.2156 -10.7135 -10.4107 -10.0071  -9.7750  -9.5311  -9.4428
     6.9942   7.8039   8.1749   8.8501

          k = 0.0897 0.5694 0.3458 (  4444 PWs)   bands (ev):

   -28.2894 -28.2492 -10.7742 -10.6653  -9.8538  -9.6790  -9.5204  -9.3964
     7.4130   7.8757   8.4208   8.5682

          k = 0.0897-0.4659 0.0692 (  4446 PWs)   bands (ev):

   -28.3890 -28.1738 -10.4883 -10.2412 -10.0251  -9.9543  -9.5769  -9.4216
     5.9797   7.8361   8.2323   9.4085

          k = 0.0897-0.4659 0.2075 (  4453 PWs)   bands (ev):

   -28.3595 -28.2019 -10.6762 -10.3494  -9.9664  -9.8034  -9.5153  -9.4110
     6.2989   7.9483   8.4693   9.0210

          k = 0.0897-0.4659 0.3458 (  4446 PWs)   bands (ev):

   -28.3089 -28.2510 -10.7164 -10.5938  -9.8268  -9.6619  -9.5416  -9.3960
     6.8675   7.5495   8.8001   8.9348

          k = 0.0897-0.2588 0.0692 (  4445 PWs)   bands (ev):

   -28.5014 -28.1348 -10.6528 -10.0016  -9.9272  -9.7012  -9.4101  -9.3771
     4.3870   7.3520   9.9429   9.9685

          k = 0.0897-0.2588 0.2075 (  4435 PWs)   bands (ev):

   -28.4529 -28.1844 -10.6255 -10.0278  -9.8175  -9.8151  -9.4782  -9.3476
     4.8266   7.1649   9.7892  10.1424

          k = 0.0897-0.2588 0.3458 (  4447 PWs)   bands (ev):

   -28.3685 -28.2702 -10.5085 -10.2876  -9.7250  -9.6114  -9.5911  -9.4294
     5.5967   6.4928  10.0076  10.2415

          k = 0.0897-0.0518 0.0692 (  4430 PWs)   bands (ev):

   -28.5672 -28.1220 -10.7916  -9.8164  -9.7956  -9.4731  -9.4042  -9.2947
     3.4761   6.8877  10.3533  11.8311

          k = 0.0897-0.0518 0.2075 (  4422 PWs)   bands (ev):

   -28.5091 -28.1833 -10.6394  -9.7539  -9.7438  -9.6589  -9.4573  -9.3908
     3.9843   6.5838  10.5017  11.9263

          k = 0.0897-0.0518 0.3458 (  4450 PWs)   bands (ev):

   -28.4077 -28.2884 -10.3572  -9.9988  -9.6536  -9.6408  -9.5487  -9.5121
     4.8520   5.8292  11.0972  11.7555

          k = 0.2690 0.4659 0.0692 (  4434 PWs)   bands (ev):

   -28.3476 -28.1952 -10.3620 -10.3539 -10.0227  -9.9933  -9.6465  -9.5063
     6.4879   7.9329   8.0370   9.2648

          k = 0.2690 0.4659 0.2075 (  4442 PWs)   bands (ev):

   -28.3262 -28.2145 -10.5975 -10.4349 -10.1180  -9.7069  -9.6058  -9.4318
     6.7812   8.1679   8.3227   8.8548

          k = 0.2690 0.4659 0.3458 (  4447 PWs)   bands (ev):

   -28.2898 -28.2489 -10.6916 -10.6213  -9.9887  -9.7951  -9.4524  -9.3561
     7.3007   7.9281   8.6823   8.7480

          k = 0.2690 0.6729 0.0692 (  4440 PWs)   bands (ev):

   -28.3033 -28.2250 -10.4173 -10.2615 -10.1071  -9.9463  -9.7437  -9.5331
     7.0359   7.7225   7.9404   9.1685

          k = 0.2690 0.6729 0.2075 (  4450 PWs)   bands (ev):

   -28.2916 -28.2342 -10.5773 -10.4535 -10.2247  -9.6598  -9.6214  -9.4794
     7.2684   8.0523   8.2412   8.8025

          k = 0.2690 0.6729 0.3458 (  4441 PWs)   bands (ev):

   -28.2720 -28.2511 -10.6975 -10.6513 -10.0596  -9.8457  -9.4119  -9.3572
     7.6877   8.2183   8.4948   8.5899

          k = 0.2690-0.3624 0.0692 (  4442 PWs)   bands (ev):

   -28.3991 -28.1689 -10.4572 -10.2523 -10.0547  -9.8945  -9.5498  -9.4597
     5.8027   7.8279   8.4757   9.4413

          k = 0.2690-0.3624 0.2075 (  4438 PWs)   bands (ev):

   -28.3676 -28.1990 -10.6279 -10.3439  -9.9944  -9.7747  -9.5528  -9.3912
     6.1433   7.9175   8.7214   9.0609

          k = 0.2690-0.3624 0.3458 (  4444 PWs)   bands (ev):

   -28.3137 -28.2519 -10.6683 -10.5550  -9.8816  -9.7136  -9.5107  -9.3724
     6.7508   7.4785   8.9997   9.0481

          k = 0.2690-0.1553 0.0692 (  4444 PWs)   bands (ev):

   -28.4820 -28.1398 -10.6144 -10.0855  -9.9047  -9.7847  -9.4103  -9.3977
     4.6546   7.4609   9.5810   9.8414

          k = 0.2690-0.1553 0.2075 (  4445 PWs)   bands (ev):

   -28.4366 -28.1860 -10.6331 -10.0950  -9.8387  -9.8375  -9.4676  -9.3609
     5.0735   7.3178   9.5990   9.7937

          k = 0.2690-0.1553 0.3458 (  4452 PWs)   bands (ev):

   -28.3576 -28.2658 -10.5558 -10.3578  -9.7230  -9.6137  -9.5872  -9.4305
     5.8121   6.6788   9.7575   9.9284

          k = 0.4483 0.7765 0.0692 (  4450 PWs)   bands (ev):

   -28.3217 -28.2121 -10.4816 -10.1947 -10.1038  -9.9858  -9.7098  -9.4816
     7.0640   7.4681   7.9494   9.2082

          k = 0.4483 0.7765 0.2075 (  4439 PWs)   bands (ev):

   -28.3057 -28.2255 -10.6615 -10.4245 -10.1323  -9.6892  -9.6025  -9.4544
     7.2635   7.8035   8.2340   8.8121

          k = 0.4483 0.7765 0.3458 (  4442 PWs)   bands (ev):

   -28.2790 -28.2497 -10.7439 -10.6610  -9.9703  -9.7735  -9.4553  -9.3681
     7.6422   8.0775   8.4339   8.5026

          k = 0.4483-0.2588 0.0692 (  4457 PWs)   bands (ev):

   -28.3705 -28.1832 -10.5194 -10.2103 -10.0307 -10.0010  -9.6160  -9.4027
     6.3162   7.8305   7.9081   9.3478

          k = 0.4483-0.2588 0.2075 (  4465 PWs)   bands (ev):

   -28.3445 -28.2075 -10.7158 -10.3818  -9.9240  -9.8419  -9.4862  -9.4416
     6.6003   7.9684   8.1862   8.9327

          k = 0.4483-0.2588 0.3458 (  4445 PWs)   bands (ev):

   -28.3001 -28.2499 -10.7632 -10.6410  -9.7884  -9.6282  -9.5655  -9.4164
     7.1007   7.6911   8.5619   8.7451

!    total energy              =    -151.28093371 Ry
     Harris-Foulkes estimate   =    -151.28093371 Ry
     estimated scf accuracy    <          7.8E-09 Ry

     The total energy is the sum of the following terms:

     one-electron contribution =     -30.63116800 Ry
     hartree contribution      =      24.80700812 Ry
     xc contribution           =     -24.13141600 Ry
     ewald contribution        =    -121.32535783 Ry

     convergence has been achieved in   7 iterations

     Forces acting on atoms (Ry/au):

     atom    1 type  2   force =     0.00000000    0.00000000    0.00000000
     atom    2 type  2   force =     0.00000000    0.00000000    0.00000000
     atom    3 type  1   force =    -0.00000000   -0.00000000   -0.00000000
     atom    4 type  1   force =     0.00000000    0.00000000   -0.00000000
     atom    5 type  1   force =     0.00000000    0.00000000    0.00000000
     atom    6 type  1   force =    -0.00000000   -0.00000000   -0.00000000

     Total force =     0.000000     Total SCF correction =     0.000000


     entering subroutine stress ...

          total   stress  (Ry/bohr**3)                   (kbar)     P=  607.74
   0.00423690   0.00000000   0.00000000        623.27      0.00      0.00
   0.00000000   0.00423690  -0.00000000          0.00    623.27     -0.00
  -0.00000000   0.00000000   0.00392012         -0.00      0.00    576.67


     number of scf cycles    =   3
     number of bfgs steps    =   2

     enthalpy old            =    -150.0874995765 Ry
     enthalpy new            =    -150.0891574831 Ry

     CASE: enthalpy_new < enthalpy_old

     new trust radius        =       0.0268435371 bohr
     new conv_thr            =       0.0000000100 Ry

     new unit-cell volume =    292.00052 a.u.^3 (    43.27001 Ang^3 )

CELL_PARAMETERS (alat=  6.86950000)
   0.932805397  -0.000000000   0.000000000
  -0.466402698   0.807833171  -0.000000000
   0.000000000  -0.000000000   1.195351178

ATOMIC_POSITIONS (crystal)
Ca       0.333333333   0.666666667   0.250000000
Ca       0.666666667   0.333333333   0.750000000
H        0.333333333   0.666666667   0.750000000
H        0.666666667   0.333333333   0.250000000
H        0.000000000   0.000000000   0.000000000
H       -0.000000000  -0.000000000   0.500000000



     Writing output data file CaH2_ambient.save
     NEW-OLD atomic charge density approx. for the potential
     NEW k-points:
        k(    1) = (   0.0893362   0.1547349   0.0697145), wk =   0.0370370
        k(    2) = (   0.0893362   0.1547349   0.2091436), wk =   0.0370370
        k(    3) = (   0.0893362   0.1547349   0.3485726), wk =   0.0370370
        k(    4) = (   0.0893362   0.3610481   0.0697145), wk =   0.0740741
        k(    5) = (   0.0893362   0.3610481   0.2091436), wk =   0.0740741
        k(    6) = (   0.0893362   0.3610481   0.3485726), wk =   0.0740741
        k(    7) = (   0.0893362   0.5673614   0.0697145), wk =   0.0740741
        k(    8) = (   0.0893362   0.5673614   0.2091436), wk =   0.0740741
        k(    9) = (   0.0893362   0.5673614   0.3485726), wk =   0.0740741
        k(   10) = (   0.0893362  -0.4642048   0.0697145), wk =   0.0740741
        k(   11) = (   0.0893362  -0.4642048   0.2091436), wk =   0.0740741
        k(   12) = (   0.0893362  -0.4642048   0.3485726), wk =   0.0740741
        k(   13) = (   0.0893362  -0.2578915   0.0697145), wk =   0.0740741
        k(   14) = (   0.0893362  -0.2578915   0.2091436), wk =   0.0740741
        k(   15) = (   0.0893362  -0.2578915   0.3485726), wk =   0.0740741
        k(   16) = (   0.0893362  -0.0515783   0.0697145), wk =   0.0370370
        k(   17) = (   0.0893362  -0.0515783   0.2091436), wk =   0.0370370
        k(   18) = (   0.0893362  -0.0515783   0.3485726), wk =   0.0370370
        k(   19) = (   0.2680087   0.4642048   0.0697145), wk =   0.0370370
        k(   20) = (   0.2680087   0.4642048   0.2091436), wk =   0.0370370
        k(   21) = (   0.2680087   0.4642048   0.3485726), wk =   0.0370370
        k(   22) = (   0.2680087   0.6705180   0.0697145), wk =   0.0740741
        k(   23) = (   0.2680087   0.6705180   0.2091436), wk =   0.0740741
        k(   24) = (   0.2680087   0.6705180   0.3485726), wk =   0.0740741
        k(   25) = (   0.2680087  -0.3610481   0.0697145), wk =   0.0740741
        k(   26) = (   0.2680087  -0.3610481   0.2091436), wk =   0.0740741
        k(   27) = (   0.2680087  -0.3610481   0.3485726), wk =   0.0740741
        k(   28) = (   0.2680087  -0.1547349   0.0697145), wk =   0.0370370
        k(   29) = (   0.2680087  -0.1547349   0.2091436), wk =   0.0370370
        k(   30) = (   0.2680087  -0.1547349   0.3485726), wk =   0.0370370
        k(   31) = (   0.4466812   0.7736746   0.0697145), wk =   0.0370370
        k(   32) = (   0.4466812   0.7736746   0.2091436), wk =   0.0370370
        k(   33) = (   0.4466812   0.7736746   0.3485726), wk =   0.0370370
        k(   34) = (   0.4466812  -0.2578915   0.0697145), wk =   0.0370370
        k(   35) = (   0.4466812  -0.2578915   0.2091436), wk =   0.0370370
        k(   36) = (   0.4466812  -0.2578915   0.3485726), wk =   0.0370370
     extrapolated charge   23.98676, renormalised to   24.00000

     total cpu time spent up to now is      565.5 secs

     per-process dynamical memory:    23.0 Mb

     Self-consistent Calculation

     iteration #  1     ecut=    80.00 Ry     beta=0.30
     Davidson diagonalization with overlap
     ethr =  1.00E-06,  avg # of iterations =  3.1

     Threshold (ethr) on eigenvalues was too large:
     Diagonalizing with lowered threshold

     Davidson diagonalization with overlap
     ethr =  7.28E-08,  avg # of iterations =  1.2

     total cpu time spent up to now is      589.3 secs

     total energy              =    -151.28055957 Ry
     Harris-Foulkes estimate   =    -151.29063916 Ry
     estimated scf accuracy    <       0.00001738 Ry

     iteration #  2     ecut=    80.00 Ry     beta=0.30
     Davidson diagonalization with overlap
     ethr =  7.24E-08,  avg # of iterations =  2.0

     total cpu time spent up to now is      601.3 secs

     total energy              =    -151.28056546 Ry
     Harris-Foulkes estimate   =    -151.28056531 Ry
     estimated scf accuracy    <       0.00000488 Ry

     iteration #  3     ecut=    80.00 Ry     beta=0.30
     Davidson diagonalization with overlap
     ethr =  2.03E-08,  avg # of iterations =  1.0

     total cpu time spent up to now is      609.7 secs

     total energy              =    -151.28056544 Ry
     Harris-Foulkes estimate   =    -151.28056550 Ry
     estimated scf accuracy    <       0.00000227 Ry

     iteration #  4     ecut=    80.00 Ry     beta=0.30
     Davidson diagonalization with overlap
     ethr =  9.48E-09,  avg # of iterations =  2.0

     total cpu time spent up to now is      619.1 secs

     total energy              =    -151.28056565 Ry
     Harris-Foulkes estimate   =    -151.28056565 Ry
     estimated scf accuracy    <       0.00000003 Ry

     iteration #  5     ecut=    80.00 Ry     beta=0.30
     Davidson diagonalization with overlap
     ethr =  1.38E-10,  avg # of iterations =  2.0

     total cpu time spent up to now is      628.5 secs

     total energy              =    -151.28056566 Ry
     Harris-Foulkes estimate   =    -151.28056566 Ry
     estimated scf accuracy    <       0.00000002 Ry

     iteration #  6     ecut=    80.00 Ry     beta=0.30
     Davidson diagonalization with overlap
     ethr =  6.46E-11,  avg # of iterations =  2.0

     total cpu time spent up to now is      637.5 secs

     End of self-consistent calculation

          k = 0.0893 0.1547 0.0697 (  4433 PWs)   bands (ev):

   -28.5539 -28.1247 -10.7488  -9.8949  -9.8660  -9.5726  -9.4086  -9.3165
     3.8007   7.0554  10.3063  10.9524

          k = 0.0893 0.1547 0.2091 (  4435 PWs)   bands (ev):

   -28.4977 -28.1835 -10.6406  -9.8467  -9.7965  -9.7611  -9.4697  -9.3550
     4.2935   6.8150  10.2854  11.1017

          k = 0.0893 0.1547 0.3486 (  4455 PWs)   bands (ev):

   -28.3995 -28.2844 -10.4248 -10.1275  -9.6928  -9.6379  -9.5744  -9.4731
     5.1409   6.0994  10.6752  11.0963

          k = 0.0893 0.3610 0.0697 (  4441 PWs)   bands (ev):

   -28.4560 -28.1528 -10.5538 -10.1685 -10.0028  -9.8381  -9.4691  -9.4147
     5.1436   7.6198   8.9918   9.7475

          k = 0.0893 0.3610 0.2091 (  4446 PWs)   bands (ev):

   -28.4153 -28.1933 -10.6527 -10.2235  -9.9108  -9.8256  -9.4986  -9.3650
     5.5361   7.5999   9.2031   9.4126

          k = 0.0893 0.3610 0.3486 (  4452 PWs)   bands (ev):

   -28.3447 -28.2635 -10.6352 -10.4732  -9.7919  -9.6386  -9.5691  -9.3976
     6.2319   7.0523   9.3949   9.4819

          k = 0.0893 0.5674 0.0697 (  4457 PWs)   bands (ev):

   -28.3556 -28.2018 -10.5252 -10.1888 -10.0653 -10.0269  -9.6606  -9.4234
     6.7351   7.5233   7.8825   9.3646

          k = 0.0893 0.5674 0.2091 (  4454 PWs)   bands (ev):

   -28.3338 -28.2211 -10.7252 -10.4174 -10.0214  -9.7726  -9.5295  -9.4356
     6.9860   7.7985   8.1603   8.9066

          k = 0.0893 0.5674 0.3486 (  4444 PWs)   bands (ev):

   -28.2969 -28.2555 -10.7888 -10.6783  -9.8645  -9.6840  -9.5122  -9.3861
     7.4226   7.9032   8.4223   8.5794

          k = 0.0893-0.4642 0.0697 (  4446 PWs)   bands (ev):

   -28.3985 -28.1777 -10.4966 -10.2450 -10.0330  -9.9597  -9.5760  -9.4199
     5.9653   7.8081   8.2055   9.5000

          k = 0.0893-0.4642 0.2091 (  4453 PWs)   bands (ev):

   -28.3682 -28.2064 -10.6897 -10.3559  -9.9807  -9.8017  -9.5157  -9.4040
     6.2941   7.9487   8.4565   9.0703

          k = 0.0893-0.4642 0.3486 (  4446 PWs)   bands (ev):

   -28.3161 -28.2567 -10.7320 -10.6069  -9.8380  -9.6673  -9.5346  -9.3868
     6.8781   7.5739   8.8048   8.9488

          k = 0.0893-0.2579 0.0697 (  4445 PWs)   bands (ev):

   -28.5113 -28.1352 -10.6601 -10.0135  -9.9439  -9.7043  -9.4117  -9.3759
     4.3848   7.3362   9.9259  10.0455

          k = 0.0893-0.2579 0.2091 (  4435 PWs)   bands (ev):

   -28.4614 -28.1860 -10.6379 -10.0363  -9.8321  -9.8227  -9.4825  -9.3437
     4.8335   7.1790   9.8413  10.1208

          k = 0.0893-0.2579 0.3486 (  4447 PWs)   bands (ev):

   -28.3748 -28.2740 -10.5235 -10.3008  -9.7385  -9.6121  -9.5990  -9.4262
     5.6173   6.5224  10.0291  10.2440

          k = 0.0893-0.0516 0.0697 (  4430 PWs)   bands (ev):

   -28.5770 -28.1202 -10.7973  -9.8356  -9.8165  -9.4771  -9.4089  -9.2933
     3.4825   6.8838  10.4568  11.7775

          k = 0.0893-0.0516 0.2091 (  4422 PWs)   bands (ev):

   -28.5173 -28.1830 -10.6469  -9.7702  -9.7626  -9.6652  -9.4641  -9.3926
     4.0003   6.6069  10.5661  11.8952

          k = 0.0893-0.0516 0.3486 (  4450 PWs)   bands (ev):

   -28.4132 -28.2908 -10.3662 -10.0073  -9.6686  -9.6525  -9.5594  -9.5186
     4.8816   5.8662  11.1322  11.7629

          k = 0.2680 0.4642 0.0697 (  4434 PWs)   bands (ev):

   -28.3567 -28.2003 -10.3707 -10.3640 -10.0229  -9.9990  -9.6461  -9.4996
     6.4686   7.9006   8.0093   9.3530

          k = 0.2680 0.4642 0.2091 (  4442 PWs)   bands (ev):

   -28.3347 -28.2201 -10.6119 -10.4435 -10.1318  -9.7005  -9.6034  -9.4245
     6.7715   8.1561   8.3079   8.9129

          k = 0.2680 0.4642 0.3486 (  4447 PWs)   bands (ev):

   -28.2973 -28.2552 -10.7087 -10.6364  -9.9969  -9.7967  -9.4439  -9.3465
     7.3071   7.9510   8.6858   8.7600

          k = 0.2680 0.6705 0.0697 (  4440 PWs)   bands (ev):

   -28.3118 -28.2314 -10.4274 -10.2707 -10.1111  -9.9468  -9.7429  -9.5245
     7.0139   7.6933   7.9077   9.2546

          k = 0.2680 0.6705 0.2091 (  4450 PWs)   bands (ev):

   -28.2997 -28.2408 -10.5906 -10.4644 -10.2370  -9.6532  -9.6164  -9.4719
     7.2560   8.0368   8.2236   8.8641

          k = 0.2680 0.6705 0.3486 (  4441 PWs)   bands (ev):

   -28.2795 -28.2580 -10.7148 -10.6678 -10.0662  -9.8458  -9.4022  -9.3468
     7.6932   8.2473   8.4959   8.5939

          k = 0.2680-0.3610 0.0697 (  4442 PWs)   bands (ev):

   -28.4087 -28.1725 -10.4665 -10.2611 -10.0582  -9.9003  -9.5492  -9.4564
     5.7887   7.7993   8.4471   9.5324

          k = 0.2680-0.3610 0.2091 (  4438 PWs)   bands (ev):

   -28.3763 -28.2033 -10.6424 -10.3516 -10.0092  -9.7713  -9.5525  -9.3846
     6.1386   7.9171   8.7070   9.1111

          k = 0.2680-0.3610 0.3486 (  4444 PWs)   bands (ev):

   -28.3208 -28.2575 -10.6849 -10.5690  -9.8920  -9.7175  -9.5044  -9.3641
     6.7610   7.5016   9.0070   9.0606

          k = 0.2680-0.1547 0.0697 (  4444 PWs)   bands (ev):

   -28.4919 -28.1408 -10.6223 -10.0936  -9.9254  -9.7836  -9.4092  -9.3993
     4.6502   7.4424   9.5473   9.9367

          k = 0.2680-0.1547 0.2091 (  4445 PWs)   bands (ev):

   -28.4452 -28.1881 -10.6464 -10.1017  -9.8569  -9.8400  -9.4719  -9.3557
     5.0783   7.3296   9.6405   9.7832

          k = 0.2680-0.1547 0.3486 (  4452 PWs)   bands (ev):

   -28.3641 -28.2700 -10.5714 -10.3710  -9.7369  -9.6110  -9.5960  -9.4251
     5.8307   6.7069   9.7768   9.9320

          k = 0.4467 0.7737 0.0697 (  4450 PWs)   bands (ev):

   -28.3305 -28.2180 -10.4875 -10.2080 -10.1028  -9.9907  -9.7079  -9.4761
     7.0436   7.4413   7.9179   9.2961

          k = 0.4467 0.7737 0.2091 (  4439 PWs)   bands (ev):

   -28.3140 -28.2316 -10.6735 -10.4335 -10.1457  -9.6852  -9.5984  -9.4472
     7.2522   7.7930   8.2180   8.8717

          k = 0.4467 0.7737 0.3486 (  4442 PWs)   bands (ev):

   -28.2865 -28.2564 -10.7596 -10.6756  -9.9787  -9.7757  -9.4465  -9.3579
     7.6494   8.1043   8.4419   8.5048

          k = 0.4467-0.2579 0.0697 (  4457 PWs)   bands (ev):

   -28.3799 -28.1876 -10.5254 -10.2122 -10.0260 -10.0213  -9.6146  -9.4015
     6.3004   7.8090   7.8764   9.4394

          k = 0.4467-0.2579 0.2091 (  4465 PWs)   bands (ev):

   -28.3532 -28.2125 -10.7281 -10.3877  -9.9416  -9.8374  -9.4881  -9.4326
     6.5946   7.9716   8.1684   8.9850

          k = 0.4467-0.2579 0.3486 (  4445 PWs)   bands (ev):

   -28.3074 -28.2559 -10.7778 -10.6535  -9.8012  -9.6353  -9.5566  -9.4057
     7.1114   7.7175   8.5640   8.7591

!    total energy              =    -151.28056566 Ry
     Harris-Foulkes estimate   =    -151.28056566 Ry
     estimated scf accuracy    <          4.3E-10 Ry

     The total energy is the sum of the following terms:

     one-electron contribution =     -30.62603019 Ry
     hartree contribution      =      24.80313504 Ry
     xc contribution           =     -24.13001859 Ry
     ewald contribution        =    -121.32765191 Ry

     convergence has been achieved in   6 iterations

     Forces acting on atoms (Ry/au):

     atom    1 type  2   force =    -0.00000000    0.00000000    0.00000000
     atom    2 type  2   force =     0.00000000    0.00000000   -0.00000000
     atom    3 type  1   force =    -0.00000000   -0.00000000    0.00000000
     atom    4 type  1   force =     0.00000000    0.00000000   -0.00000000
     atom    5 type  1   force =    -0.00000000   -0.00000000    0.00000000
     atom    6 type  1   force =     0.00000000    0.00000000    0.00000000

     Total force =     0.000000     Total SCF correction =     0.000000


     entering subroutine stress ...

          total   stress  (Ry/bohr**3)                   (kbar)     P=  605.80
   0.00414003   0.00000000  -0.00000000        609.02      0.00     -0.00
   0.00000000   0.00414003   0.00000000          0.00    609.02      0.00
  -0.00000000   0.00000000   0.00407448         -0.00      0.00    599.38


     number of scf cycles    =   4
     number of bfgs steps    =   3

     enthalpy old            =    -150.0891574831 Ry
     enthalpy new            =    -150.0895779313 Ry

     CASE: enthalpy_new < enthalpy_old

     new trust radius        =       0.0052578966 bohr
     new conv_thr            =       0.0000000100 Ry

     new unit-cell volume =    292.56459 a.u.^3 (    43.35360 Ang^3 )

CELL_PARAMETERS (alat=  6.86950000)
   0.934240494  -0.000000000   0.000000000
  -0.467120247   0.809076001  -0.000000000
   0.000000000  -0.000000000   1.193983632

ATOMIC_POSITIONS (crystal)
Ca       0.333333333   0.666666667   0.250000000
Ca       0.666666667   0.333333333   0.750000000
H        0.333333333   0.666666667   0.750000000
H        0.666666667   0.333333333   0.250000000
H       -0.000000000  -0.000000000   0.000000000
H       -0.000000000  -0.000000000   0.500000000



     Writing output data file CaH2_ambient.save
     NEW-OLD atomic charge density approx. for the potential
     NEW k-points:
        k(    1) = (   0.0891990   0.1544972   0.0697944), wk =   0.0370370
        k(    2) = (   0.0891990   0.1544972   0.2093831), wk =   0.0370370
        k(    3) = (   0.0891990   0.1544972   0.3489718), wk =   0.0370370
        k(    4) = (   0.0891990   0.3604935   0.0697944), wk =   0.0740741
        k(    5) = (   0.0891990   0.3604935   0.2093831), wk =   0.0740741
        k(    6) = (   0.0891990   0.3604935   0.3489718), wk =   0.0740741
        k(    7) = (   0.0891990   0.5664898   0.0697944), wk =   0.0740741
        k(    8) = (   0.0891990   0.5664898   0.2093831), wk =   0.0740741
        k(    9) = (   0.0891990   0.5664898   0.3489718), wk =   0.0740741
        k(   10) = (   0.0891990  -0.4634917   0.0697944), wk =   0.0740741
        k(   11) = (   0.0891990  -0.4634917   0.2093831), wk =   0.0740741
        k(   12) = (   0.0891990  -0.4634917   0.3489718), wk =   0.0740741
        k(   13) = (   0.0891990  -0.2574954   0.0697944), wk =   0.0740741
        k(   14) = (   0.0891990  -0.2574954   0.2093831), wk =   0.0740741
        k(   15) = (   0.0891990  -0.2574954   0.3489718), wk =   0.0740741
        k(   16) = (   0.0891990  -0.0514991   0.0697944), wk =   0.0370370
        k(   17) = (   0.0891990  -0.0514991   0.2093831), wk =   0.0370370
        k(   18) = (   0.0891990  -0.0514991   0.3489718), wk =   0.0370370
        k(   19) = (   0.2675970   0.4634917   0.0697944), wk =   0.0370370
        k(   20) = (   0.2675970   0.4634917   0.2093831), wk =   0.0370370
        k(   21) = (   0.2675970   0.4634917   0.3489718), wk =   0.0370370
        k(   22) = (   0.2675970   0.6694880   0.0697944), wk =   0.0740741
        k(   23) = (   0.2675970   0.6694880   0.2093831), wk =   0.0740741
        k(   24) = (   0.2675970   0.6694880   0.3489718), wk =   0.0740741
        k(   25) = (   0.2675970  -0.3604935   0.0697944), wk =   0.0740741
        k(   26) = (   0.2675970  -0.3604935   0.2093831), wk =   0.0740741
        k(   27) = (   0.2675970  -0.3604935   0.3489718), wk =   0.0740741
        k(   28) = (   0.2675970  -0.1544972   0.0697944), wk =   0.0370370
        k(   29) = (   0.2675970  -0.1544972   0.2093831), wk =   0.0370370
        k(   30) = (   0.2675970  -0.1544972   0.3489718), wk =   0.0370370
        k(   31) = (   0.4459951   0.7724861   0.0697944), wk =   0.0370370
        k(   32) = (   0.4459951   0.7724861   0.2093831), wk =   0.0370370
        k(   33) = (   0.4459951   0.7724861   0.3489718), wk =   0.0370370
        k(   34) = (   0.4459951  -0.2574954   0.0697944), wk =   0.0370370
        k(   35) = (   0.4459951  -0.2574954   0.2093831), wk =   0.0370370
        k(   36) = (   0.4459951  -0.2574954   0.3489718), wk =   0.0370370
     extrapolated charge   24.03856, renormalised to   24.00000

     total cpu time spent up to now is      722.8 secs

     per-process dynamical memory:    23.0 Mb

     Self-consistent Calculation

     iteration #  1     ecut=    80.00 Ry     beta=0.30
     Davidson diagonalization with overlap
     ethr =  1.00E-06,  avg # of iterations =  2.3

     total cpu time spent up to now is      734.8 secs

     total energy              =    -151.28285038 Ry
     Harris-Foulkes estimate   =    -151.25341651 Ry
     estimated scf accuracy    <       0.00007013 Ry

     iteration #  2     ecut=    80.00 Ry     beta=0.30
     Davidson diagonalization with overlap
     ethr =  2.92E-07,  avg # of iterations =  2.0

     total cpu time spent up to now is      746.6 secs

     total energy              =    -151.28289598 Ry
     Harris-Foulkes estimate   =    -151.28289651 Ry
     estimated scf accuracy    <       0.00000281 Ry

     iteration #  3     ecut=    80.00 Ry     beta=0.30
     Davidson diagonalization with overlap
     ethr =  1.17E-08,  avg # of iterations =  1.1

     total cpu time spent up to now is      755.1 secs

     total energy              =    -151.28289507 Ry
     Harris-Foulkes estimate   =    -151.28289604 Ry
     estimated scf accuracy    <       0.00000165 Ry

     iteration #  4     ecut=    80.00 Ry     beta=0.30
     Davidson diagonalization with overlap
     ethr =  6.88E-09,  avg # of iterations =  2.1

     total cpu time spent up to now is      766.6 secs

     total energy              =    -151.28289542 Ry
     Harris-Foulkes estimate   =    -151.28289542 Ry
     estimated scf accuracy    <       0.00000004 Ry

     iteration #  5     ecut=    80.00 Ry     beta=0.30
     Davidson diagonalization with overlap
     ethr =  1.50E-10,  avg # of iterations =  1.2

     total cpu time spent up to now is      775.1 secs

     total energy              =    -151.28289542 Ry
     Harris-Foulkes estimate   =    -151.28289542 Ry
     estimated scf accuracy    <       0.00000001 Ry

     iteration #  6     ecut=    80.00 Ry     beta=0.30
     Davidson diagonalization with overlap
     ethr =  5.77E-11,  avg # of iterations =  1.9

     total cpu time spent up to now is      784.0 secs

     End of self-consistent calculation

          k = 0.0892 0.1545 0.0698 (  4433 PWs)   bands (ev):

   -28.5855 -28.1569 -10.7763  -9.9291  -9.9012  -9.6053  -9.4424  -9.3502
     3.7775   7.0311  10.2999  10.9147

          k = 0.0892 0.1545 0.2094 (  4435 PWs)   bands (ev):

   -28.5293 -28.2156 -10.6694  -9.8800  -9.8303  -9.7954  -9.5037  -9.3883
     4.2717   6.7947  10.2718  11.0680

          k = 0.0892 0.1545 0.3490 (  4455 PWs)   bands (ev):

   -28.4312 -28.3163 -10.4552 -10.1593  -9.7276  -9.6712  -9.6088  -9.5063
     5.1210   6.0809  10.6555  11.0699

          k = 0.0892 0.3605 0.0698 (  4441 PWs)   bands (ev):

   -28.4883 -28.1855 -10.5828 -10.1984 -10.0354  -9.8692  -9.5020  -9.4476
     5.1150   7.5900   8.9598   9.7431

          k = 0.0892 0.3605 0.2094 (  4446 PWs)   bands (ev):

   -28.4476 -28.2259 -10.6822 -10.2533  -9.9446  -9.8565  -9.5316  -9.3972
     5.5093   7.5748   9.1754   9.3979

          k = 0.0892 0.3605 0.3490 (  4452 PWs)   bands (ev):

   -28.3772 -28.2961 -10.6651 -10.5033  -9.8256  -9.6717  -9.6004  -9.4293
     6.2080   7.0305   9.3733   9.4580

          k = 0.0892 0.5665 0.0698 (  4457 PWs)   bands (ev):

   -28.3885 -28.2349 -10.5527 -10.2192 -10.0936 -10.0598  -9.6920  -9.4556
     6.7041   7.4912   7.8499   9.3617

          k = 0.0892 0.5665 0.2094 (  4454 PWs)   bands (ev):

   -28.3668 -28.2542 -10.7534 -10.4462 -10.0543  -9.8031  -9.5615  -9.4670
     6.9580   7.7710   8.1294   8.8944

          k = 0.0892 0.5665 0.3490 (  4444 PWs)   bands (ev):

   -28.3298 -28.2885 -10.8174 -10.7071  -9.8974  -9.7165  -9.5429  -9.4170
     7.3998   7.8861   8.3915   8.5535

          k = 0.0892-0.4635 0.0698 (  4446 PWs)   bands (ev):

   -28.4312 -28.2107 -10.5254 -10.2741 -10.0646  -9.9904  -9.6081  -9.4524
     5.9346   7.7767   8.1738   9.4966

          k = 0.0892-0.4635 0.2094 (  4453 PWs)   bands (ev):

   -28.4009 -28.2394 -10.7186 -10.3849 -10.0139  -9.8321  -9.5481  -9.4357
     6.2657   7.9222   8.4272   9.0574

          k = 0.0892-0.4635 0.3490 (  4446 PWs)   bands (ev):

   -28.3489 -28.2896 -10.7611 -10.6362  -9.8712  -9.7001  -9.5654  -9.4180
     6.8535   7.5526   8.7790   8.9261

          k = 0.0892-0.2575 0.0698 (  4445 PWs)   bands (ev):

   -28.5432 -28.1676 -10.6883 -10.0458  -9.9778  -9.7362  -9.4451  -9.4093
     4.3590   7.3091   9.8918  10.0398

          k = 0.0892-0.2575 0.2094 (  4435 PWs)   bands (ev):

   -28.4934 -28.2184 -10.6672 -10.0676  -9.8667  -9.8547  -9.5160  -9.3765
     4.8093   7.1563   9.8277  10.0898

          k = 0.0892-0.2575 0.3490 (  4447 PWs)   bands (ev):

   -28.4068 -28.3062 -10.5539 -10.3319  -9.7728  -9.6444  -9.6326  -9.4586
     5.5954   6.5020  10.0090  10.2186

          k = 0.0892-0.0515 0.0698 (  4430 PWs)   bands (ev):

   -28.6084 -28.1522 -10.8244  -9.8708  -9.8522  -9.5105  -9.4429  -9.3271
     3.4609   6.8611  10.4498  11.7362

          k = 0.0892-0.0515 0.2094 (  4422 PWs)   bands (ev):

   -28.5488 -28.2149 -10.6752  -9.8050  -9.7980  -9.6983  -9.4984  -9.4263
     3.9799   6.5879  10.5527  11.8588

          k = 0.0892-0.0515 0.3490 (  4450 PWs)   bands (ev):

   -28.4447 -28.3225 -10.3963 -10.0392  -9.7037  -9.6869  -9.5940  -9.5526
     4.8630   5.8489  11.1130  11.7360

          k = 0.2676 0.4635 0.0698 (  4434 PWs)   bands (ev):

   -28.3896 -28.2334 -10.4006 -10.3935 -10.0525 -10.0298  -9.6780  -9.5304
     6.4362   7.8666   7.9776   9.3501

          k = 0.2676 0.4635 0.2094 (  4442 PWs)   bands (ev):

   -28.3676 -28.2532 -10.6416 -10.4724 -10.1638  -9.7305  -9.6345  -9.4560
     6.7415   8.1251   8.2782   8.9029

          k = 0.2676 0.4635 0.3490 (  4447 PWs)   bands (ev):

   -28.3302 -28.2882 -10.7385 -10.6659 -10.0283  -9.8276  -9.4750  -9.3779
     7.2812   7.9285   8.6594   8.7367

          k = 0.2676 0.6695 0.0698 (  4440 PWs)   bands (ev):

   -28.3449 -28.2646 -10.4566 -10.3010 -10.1410  -9.9769  -9.7740  -9.5547
     6.9821   7.6590   7.8732   9.2519

          k = 0.2676 0.6695 0.2094 (  4450 PWs)   bands (ev):

   -28.3328 -28.2739 -10.6200 -10.4939 -10.2679  -9.6831  -9.6471  -9.5030
     7.2268   8.0049   8.1914   8.8547

          k = 0.2676 0.6695 0.3490 (  4441 PWs)   bands (ev):

   -28.3126 -28.2911 -10.7445 -10.6975 -10.0967  -9.8760  -9.4333  -9.3780
     7.6687   8.2286   8.4662   8.5661

          k = 0.2676-0.3605 0.0698 (  4442 PWs)   bands (ev):

   -28.4413 -28.2055 -10.4960 -10.2911 -10.0883  -9.9318  -9.5817  -9.4882
     5.7579   7.7671   8.4157   9.5287

          k = 0.2676-0.3605 0.2094 (  4438 PWs)   bands (ev):

   -28.4090 -28.2362 -10.6720 -10.3808 -10.0423  -9.8016  -9.5845  -9.4165
     6.1099   7.8894   8.6781   9.0989

          k = 0.2676-0.3605 0.3490 (  4444 PWs)   bands (ev):

   -28.3536 -28.2903 -10.7146 -10.5987  -9.9245  -9.7495  -9.5355  -9.3957
     6.7357   7.4789   8.9827   9.0383

          k = 0.2676-0.1545 0.0698 (  4444 PWs)   bands (ev):

   -28.5240 -28.1733 -10.6508 -10.1244  -9.9604  -9.8140  -9.4423  -9.4327
     4.6234   7.4143   9.5142   9.9315

          k = 0.2676-0.1545 0.2094 (  4445 PWs)   bands (ev):

   -28.4773 -28.2205 -10.6758 -10.1322  -9.8917  -9.8712  -9.5055  -9.3881
     5.0531   7.3061   9.6235   9.7564

          k = 0.2676-0.1545 0.3490 (  4452 PWs)   bands (ev):

   -28.3963 -28.3023 -10.6016 -10.4017  -9.7713  -9.6424  -9.6300  -9.4570
     5.8080   6.6860   9.7563   9.9070

          k = 0.4460 0.7725 0.0698 (  4450 PWs)   bands (ev):

   -28.3636 -28.2511 -10.5155 -10.2397 -10.1315 -10.0216  -9.7390  -9.5073
     7.0130   7.4067   7.8848   9.2934

          k = 0.4460 0.7725 0.2094 (  4439 PWs)   bands (ev):

   -28.3470 -28.2647 -10.7020 -10.4627 -10.1774  -9.7159  -9.6293  -9.4785
     7.2241   7.7620   8.1870   8.8609

          k = 0.4460 0.7725 0.3490 (  4442 PWs)   bands (ev):

   -28.3196 -28.2895 -10.7886 -10.7049 -10.0102  -9.8069  -9.4775  -9.3891
     7.6264   8.0865   8.4131   8.4756

          k = 0.4460-0.2575 0.0698 (  4457 PWs)   bands (ev):

   -28.4127 -28.2207 -10.5533 -10.2412 -10.0557 -10.0542  -9.6465  -9.4343
     6.2696   7.7816   7.8406   9.4363

          k = 0.4460-0.2575 0.2094 (  4465 PWs)   bands (ev):

   -28.3860 -28.2455 -10.7565 -10.4164  -9.9757  -9.8670  -9.5210  -9.4637
     6.5665   7.9486   8.1352   8.9720

          k = 0.4460-0.2575 0.3490 (  4445 PWs)   bands (ev):

   -28.3403 -28.2888 -10.8065 -10.6823  -9.8350  -9.6686  -9.5869  -9.4365
     7.0878   7.6985   8.5355   8.7351

!    total energy              =    -151.28289542 Ry
     Harris-Foulkes estimate   =    -151.28289542 Ry
     estimated scf accuracy    <          1.1E-10 Ry

     The total energy is the sum of the following terms:

     one-electron contribution =     -30.75061856 Ry
     hartree contribution      =      24.83670854 Ry
     xc contribution           =     -24.12544036 Ry
     ewald contribution        =    -121.24354505 Ry

     convergence has been achieved in   6 iterations

     Forces acting on atoms (Ry/au):

     atom    1 type  2   force =     0.00000000   -0.00000000   -0.00000000
     atom    2 type  2   force =    -0.00000000   -0.00000000   -0.00000000
     atom    3 type  1   force =    -0.00000000    0.00000000    0.00000000
     atom    4 type  1   force =     0.00000000    0.00000000    0.00000000
     atom    5 type  1   force =     0.00000000    0.00000000    0.00000000
     atom    6 type  1   force =     0.00000000    0.00000000    0.00000000

     Total force =     0.000000     Total SCF correction =     0.000000


     entering subroutine stress ...

          total   stress  (Ry/bohr**3)                   (kbar)     P=  600.46
   0.00408188  -0.00000000  -0.00000000        600.47     -0.00     -0.00
  -0.00000000   0.00408188  -0.00000000         -0.00    600.47     -0.00
  -0.00000000  -0.00000000   0.00408175         -0.00     -0.00    600.45


     bfgs converged in   5 scf cycles and   4 bfgs steps
     (criteria: energy < 0.10E-03, force < 0.10E-02, cell < 0.50E+00)

     End of BFGS Geometry Optimization

     Final enthalpy =    -150.0896070196 Ry
Begin final coordinates
     new unit-cell volume =    292.56459 a.u.^3 (    43.35360 Ang^3 )

CELL_PARAMETERS (alat=  6.86950000)
   0.934240494  -0.000000000   0.000000000
  -0.467120247   0.809076001  -0.000000000
   0.000000000  -0.000000000   1.193983632

ATOMIC_POSITIONS (crystal)
Ca       0.333333333   0.666666667   0.250000000
Ca       0.666666667   0.333333333   0.750000000
H        0.333333333   0.666666667   0.750000000
H        0.666666667   0.333333333   0.250000000
H       -0.000000000  -0.000000000   0.000000000
H       -0.000000000  -0.000000000   0.500000000
End final coordinates



     A final scf calculation at the relaxed structure.
     The G-vectors are recalculated for the final unit cell
     Results may differ from those at the preceding step.

     G-vector sticks info
     --------------------
     sticks:   dense  smooth     PW     G-vecs:    dense   smooth      PW
     Sum         913     913    271                28319    28319    4687



     bravais-lattice index     =            4
     lattice parameter (alat)  =       6.8695  a.u.
     unit-cell volume          =     292.5646 (a.u.)^3
     number of atoms/cell      =            6
     number of atomic types    =            2
     number of electrons       =        24.00
     number of Kohn-Sham states=           12
     kinetic-energy cutoff     =      80.0000  Ry
     charge density cutoff     =     320.0000  Ry
     convergence threshold     =      1.0E-08
     mixing beta               =       0.3000
     number of iterations used =           16  local-TF  mixing
     Exchange-correlation      = PBE ( 1 4 3 4 0)
     EXX-fraction              =        0.00

     celldm(1)=   6.869500  celldm(2)=   0.000000  celldm(3)=   1.310400
     celldm(4)=   0.000000  celldm(5)=   0.000000  celldm(6)=   0.000000

     crystal axes: (cart. coord. in units of alat)
               a(1) = (   0.934240  -0.000000   0.000000 )  
               a(2) = (  -0.467120   0.809076  -0.000000 )  
               a(3) = (   0.000000  -0.000000   1.193984 )  

     reciprocal axes: (cart. coord. in units 2 pi/alat)
               b(1) = (  1.070388  0.617989 -0.000000 )  
               b(2) = (  0.000000  1.235978  0.000000 )  
               b(3) = ( -0.000000  0.000000  0.837532 )  


     PseudoPot. # 1 for H  read from file:
     /home/ilia/espresso/pseudo/H.pbe-sp-mt.ncpp
     MD5 check sum: 7a641936b52ccecd26bd1ad87cca5aed
     Pseudo is Norm-conserving, Zval =  1.0
     Generated by old ld1 code (numerical format)
     Using radial grid of 1076 points,  0 beta functions with: 

     PseudoPot. # 2 for Ca read from file:
     /home/ilia/espresso/pseudo/Ca.pbe-sp-mt_ion2.ncpp
     MD5 check sum: 4bcd670d05521f7b178fdf0a334578ab
     Pseudo is Norm-conserving, Zval = 10.0
     Generated by old ld1 code (numerical format)
     Using radial grid of 1153 points,  1 beta functions with: 
                l(1) =   1

     atomic species   valence    mass     pseudopotential
        H              1.00     1.00700     H ( 1.00)
        Ca            10.00    40.07800     Ca( 1.00)

     24 Sym. Ops., with inversion, found (12 have fractional translation)



   Cartesian axes

     site n.     atom                  positions (alat units)
         1           Ca  tau(   1) = (  -0.0000000   0.5393840   0.2984959  )
         2           Ca  tau(   2) = (   0.4671202   0.2696920   0.8954877  )
         3           H   tau(   3) = (  -0.0000000   0.5393840   0.8954877  )
         4           H   tau(   4) = (   0.4671202   0.2696920   0.2984959  )
         5           H   tau(   5) = (  -0.0000000  -0.0000000   0.0000000  )
         6           H   tau(   6) = (  -0.0000000  -0.0000000   0.5969918  )

     number of k points=    36
                       cart. coord. in units 2pi/alat
        k(    1) = (   0.0891990   0.1544972   0.0697944), wk =   0.0370370
        k(    2) = (   0.0891990   0.1544972   0.2093831), wk =   0.0370370
        k(    3) = (   0.0891990   0.1544972   0.3489718), wk =   0.0370370
        k(    4) = (   0.0891990   0.3604935   0.0697944), wk =   0.0740741
        k(    5) = (   0.0891990   0.3604935   0.2093831), wk =   0.0740741
        k(    6) = (   0.0891990   0.3604935   0.3489718), wk =   0.0740741
        k(    7) = (   0.0891990   0.5664898   0.0697944), wk =   0.0740741
        k(    8) = (   0.0891990   0.5664898   0.2093831), wk =   0.0740741
        k(    9) = (   0.0891990   0.5664898   0.3489718), wk =   0.0740741
        k(   10) = (   0.0891990  -0.4634917   0.0697944), wk =   0.0740741
        k(   11) = (   0.0891990  -0.4634917   0.2093831), wk =   0.0740741
        k(   12) = (   0.0891990  -0.4634917   0.3489718), wk =   0.0740741
        k(   13) = (   0.0891990  -0.2574954   0.0697944), wk =   0.0740741
        k(   14) = (   0.0891990  -0.2574954   0.2093831), wk =   0.0740741
        k(   15) = (   0.0891990  -0.2574954   0.3489718), wk =   0.0740741
        k(   16) = (   0.0891990  -0.0514991   0.0697944), wk =   0.0370370
        k(   17) = (   0.0891990  -0.0514991   0.2093831), wk =   0.0370370
        k(   18) = (   0.0891990  -0.0514991   0.3489718), wk =   0.0370370
        k(   19) = (   0.2675970   0.4634917   0.0697944), wk =   0.0370370
        k(   20) = (   0.2675970   0.4634917   0.2093831), wk =   0.0370370
        k(   21) = (   0.2675970   0.4634917   0.3489718), wk =   0.0370370
        k(   22) = (   0.2675970   0.6694880   0.0697944), wk =   0.0740741
        k(   23) = (   0.2675970   0.6694880   0.2093831), wk =   0.0740741
        k(   24) = (   0.2675970   0.6694880   0.3489718), wk =   0.0740741
        k(   25) = (   0.2675970  -0.3604935   0.0697944), wk =   0.0740741
        k(   26) = (   0.2675970  -0.3604935   0.2093831), wk =   0.0740741
        k(   27) = (   0.2675970  -0.3604935   0.3489718), wk =   0.0740741
        k(   28) = (   0.2675970  -0.1544972   0.0697944), wk =   0.0370370
        k(   29) = (   0.2675970  -0.1544972   0.2093831), wk =   0.0370370
        k(   30) = (   0.2675970  -0.1544972   0.3489718), wk =   0.0370370
        k(   31) = (   0.4459951   0.7724861   0.0697944), wk =   0.0370370
        k(   32) = (   0.4459951   0.7724861   0.2093831), wk =   0.0370370
        k(   33) = (   0.4459951   0.7724861   0.3489718), wk =   0.0370370
        k(   34) = (   0.4459951  -0.2574954   0.0697944), wk =   0.0370370
        k(   35) = (   0.4459951  -0.2574954   0.2093831), wk =   0.0370370
        k(   36) = (   0.4459951  -0.2574954   0.3489718), wk =   0.0370370

     Dense  grid:    28319 G-vectors     FFT dimensions: (  40,  40,  48)

     Largest allocated arrays     est. size (Mb)     dimensions
        Kohn-Sham Wavefunctions         0.65 Mb     (   3552,   12)
        NL pseudopotentials             0.33 Mb     (   3552,    6)
        Each V/rho on FFT grid          1.17 Mb     (  76800)
        Each G-vector array             0.22 Mb     (  28319)
        G-vector shells                 0.01 Mb     (   1355)
     Largest temporary arrays     est. size (Mb)     dimensions
        Auxiliary wavefunctions         2.60 Mb     (   3552,   48)
        Each subspace H/S matrix        0.04 Mb     (  48,  48)
        Each <psi_i|beta_j> matrix      0.00 Mb     (      6,   12)
        Arrays for rho mixing          18.75 Mb     (  76800,  16)

     Initial potential from superposition of free atoms

     starting charge   19.99996, renormalised to   24.00000
     Starting wfc are   12 randomized atomic wfcs

     Writing output data file CaH2_ambient.save

     total cpu time spent up to now is      834.1 secs

     per-process dynamical memory:    18.9 Mb

     Self-consistent Calculation

     iteration #  1     ecut=    80.00 Ry     beta=0.30
     Davidson diagonalization with overlap
     ethr =  1.00E-06,  avg # of iterations =  5.0

     total cpu time spent up to now is      853.3 secs

     total energy              =    -152.75595388 Ry
     Harris-Foulkes estimate   =    -153.87124272 Ry
     estimated scf accuracy    <       5.31467999 Ry

     iteration #  2     ecut=    80.00 Ry     beta=0.30
     Davidson diagonalization with overlap
     ethr =  1.00E-02,  avg # of iterations =  1.0

     total cpu time spent up to now is      860.0 secs

     total energy              =    -150.66755551 Ry
     Harris-Foulkes estimate   =    -152.81764013 Ry
     estimated scf accuracy    <       3.12845278 Ry

     iteration #  3     ecut=    80.00 Ry     beta=0.30
     Davidson diagonalization with overlap
     ethr =  1.00E-02,  avg # of iterations =  2.0

     total cpu time spent up to now is      869.5 secs

     total energy              =    -151.26681215 Ry
     Harris-Foulkes estimate   =    -151.26691918 Ry
     estimated scf accuracy    <       0.08322356 Ry

     iteration #  4     ecut=    80.00 Ry     beta=0.30
     Davidson diagonalization with overlap
     ethr =  3.47E-04,  avg # of iterations =  1.1

     total cpu time spent up to now is      876.2 secs

     total energy              =    -151.27302603 Ry
     Harris-Foulkes estimate   =    -151.26841788 Ry
     estimated scf accuracy    <       0.05269138 Ry

     iteration #  5     ecut=    80.00 Ry     beta=0.30
     Davidson diagonalization with overlap
     ethr =  2.20E-04,  avg # of iterations =  2.0

     total cpu time spent up to now is      883.6 secs

     total energy              =    -151.27668283 Ry
     Harris-Foulkes estimate   =    -151.27673395 Ry
     estimated scf accuracy    <       0.00114603 Ry

     iteration #  6     ecut=    80.00 Ry     beta=0.30
     Davidson diagonalization with overlap
     ethr =  4.78E-06,  avg # of iterations =  2.0

     total cpu time spent up to now is      891.0 secs

     total energy              =    -151.27684337 Ry
     Harris-Foulkes estimate   =    -151.27675921 Ry
     estimated scf accuracy    <       0.00056583 Ry

     iteration #  7     ecut=    80.00 Ry     beta=0.30
     Davidson diagonalization with overlap
     ethr =  2.36E-06,  avg # of iterations =  2.0

     total cpu time spent up to now is      898.4 secs

     total energy              =    -151.27679634 Ry
     Harris-Foulkes estimate   =    -151.27687861 Ry
     estimated scf accuracy    <       0.00012658 Ry

     iteration #  8     ecut=    80.00 Ry     beta=0.30
     Davidson diagonalization with overlap
     ethr =  5.27E-07,  avg # of iterations =  2.0

     total cpu time spent up to now is      907.7 secs

     total energy              =    -151.27681806 Ry
     Harris-Foulkes estimate   =    -151.27681658 Ry
     estimated scf accuracy    <       0.00000209 Ry

     iteration #  9     ecut=    80.00 Ry     beta=0.30
     Davidson diagonalization with overlap
     ethr =  8.70E-09,  avg # of iterations =  2.9

     total cpu time spent up to now is      917.7 secs

     total energy              =    -151.27681645 Ry
     Harris-Foulkes estimate   =    -151.27682016 Ry
     estimated scf accuracy    <       0.00000740 Ry

     iteration # 10     ecut=    80.00 Ry     beta=0.30
     Davidson diagonalization with overlap
     ethr =  8.70E-09,  avg # of iterations =  2.0

     total cpu time spent up to now is      927.2 secs

     total energy              =    -151.27681753 Ry
     Harris-Foulkes estimate   =    -151.27681753 Ry
     estimated scf accuracy    <       0.00000004 Ry

     iteration # 11     ecut=    80.00 Ry     beta=0.30
     Davidson diagonalization with overlap
     ethr =  1.56E-10,  avg # of iterations =  2.0

     total cpu time spent up to now is      934.6 secs

     total energy              =    -151.27681752 Ry
     Harris-Foulkes estimate   =    -151.27681754 Ry
     estimated scf accuracy    <       0.00000004 Ry

     iteration # 12     ecut=    80.00 Ry     beta=0.30
     Davidson diagonalization with overlap
     ethr =  1.56E-10,  avg # of iterations =  2.0

     total cpu time spent up to now is      943.0 secs

     End of self-consistent calculation

          k = 0.0892 0.1545 0.0698 (  3519 PWs)   bands (ev):

   -28.5676 -28.1400 -10.7785  -9.9316  -9.9038  -9.6079  -9.4451  -9.3529
     3.7813   7.0320  10.3002  10.9155

          k = 0.0892 0.1545 0.2094 (  3534 PWs)   bands (ev):

   -28.5116 -28.1995 -10.6716  -9.8825  -9.8329  -9.7980  -9.5064  -9.3910
     4.2750   6.7958  10.2723  11.0687

          k = 0.0892 0.1545 0.3490 (  3527 PWs)   bands (ev):

   -28.4133 -28.2994 -10.4575 -10.1616  -9.7303  -9.6738  -9.6115  -9.5090
     5.1236   6.0827  10.6561  11.0704

          k = 0.0892 0.3605 0.0698 (  3533 PWs)   bands (ev):

   -28.4715 -28.1685 -10.5851 -10.2008 -10.0379  -9.8717  -9.5046  -9.4503
     5.1174   7.5904   8.9605   9.7435

          k = 0.0892 0.3605 0.2094 (  3532 PWs)   bands (ev):

   -28.4307 -28.2089 -10.6845 -10.2557  -9.9472  -9.8591  -9.5343  -9.3999
     5.5116   7.5754   9.1760   9.3985

          k = 0.0892 0.3605 0.3490 (  3541 PWs)   bands (ev):

   -28.3604 -28.2794 -10.6674 -10.5056  -9.8282  -9.6744  -9.6031  -9.4320
     6.2097   7.0316   9.3738   9.4584

          k = 0.0892 0.5665 0.0698 (  3547 PWs)   bands (ev):

   -28.3721 -28.2184 -10.5550 -10.2216 -10.0960 -10.0623  -9.6945  -9.4583
     6.7051   7.4923   7.8502   9.3622

          k = 0.0892 0.5665 0.2094 (  3534 PWs)   bands (ev):

   -28.3499 -28.2371 -10.7556 -10.4485 -10.0568  -9.8057  -9.5641  -9.4696
     6.9589   7.7722   8.1296   8.8948

          k = 0.0892 0.5665 0.3490 (  3534 PWs)   bands (ev):

   -28.3130 -28.2716 -10.8196 -10.7093  -9.8999  -9.7192  -9.5455  -9.4197
     7.4007   7.8873   8.3917   8.5537

          k = 0.0892-0.4635 0.0698 (  3540 PWs)   bands (ev):

   -28.4146 -28.1939 -10.5277 -10.2764 -10.0671  -9.9928  -9.6107  -9.4551
     5.9363   7.7770   8.1746   9.4970

          k = 0.0892-0.4635 0.2094 (  3535 PWs)   bands (ev):

   -28.3843 -28.2221 -10.7209 -10.3873 -10.0164  -9.8347  -9.5508  -9.4383
     6.2673   7.9227   8.4280   9.0579

          k = 0.0892-0.4635 0.3490 (  3532 PWs)   bands (ev):

   -28.3320 -28.2725 -10.7634 -10.6384  -9.8738  -9.7027  -9.5680  -9.4207
     6.8548   7.5535   8.7794   8.9265

          k = 0.0892-0.2575 0.0698 (  3532 PWs)   bands (ev):

   -28.5262 -28.1506 -10.6906 -10.0483  -9.9803  -9.7387  -9.4478  -9.4119
     4.3621   7.3097   9.8926  10.0402

          k = 0.0892-0.2575 0.2094 (  3533 PWs)   bands (ev):

   -28.4764 -28.2016 -10.6694 -10.0700  -9.8693  -9.8572  -9.5187  -9.3791
     4.8120   7.1571   9.8283  10.0905

          k = 0.0892-0.2575 0.3490 (  3522 PWs)   bands (ev):

   -28.3892 -28.2889 -10.5562 -10.3342  -9.7754  -9.6470  -9.6353  -9.4612
     5.5976   6.5036  10.0096  10.2192

          k = 0.0892-0.0515 0.0698 (  3517 PWs)   bands (ev):

   -28.5900 -28.1357 -10.8266  -9.8734  -9.8548  -9.5132  -9.4456  -9.3297
     3.4650   6.8622  10.4501  11.7369

          k = 0.0892-0.0515 0.2094 (  3527 PWs)   bands (ev):

   -28.5307 -28.1987 -10.6774  -9.8076  -9.8007  -9.7008  -9.5011  -9.4290
     3.9834   6.5892  10.5532  11.8595

          k = 0.0892-0.0515 0.3490 (  3524 PWs)   bands (ev):

   -28.4269 -28.3052 -10.3986 -10.0415  -9.7064  -9.6896  -9.5967  -9.5553
     4.8658   5.8508  11.1136  11.7366

          k = 0.2676 0.4635 0.0698 (  3547 PWs)   bands (ev):

   -28.3737 -28.2169 -10.4029 -10.3959 -10.0549 -10.0323  -9.6806  -9.5331
     6.4374   7.8669   7.9783   9.3505

          k = 0.2676 0.4635 0.2094 (  3535 PWs)   bands (ev):

   -28.3508 -28.2364 -10.6439 -10.4747 -10.1663  -9.7331  -9.6371  -9.4587
     6.7426   8.1253   8.2789   8.9035

          k = 0.2676 0.4635 0.3490 (  3535 PWs)   bands (ev):

   -28.3136 -28.2712 -10.7407 -10.6682 -10.0308  -9.8302  -9.4776  -9.3806
     7.2820   7.9290   8.6598   8.7371

          k = 0.2676 0.6695 0.0698 (  3546 PWs)   bands (ev):

   -28.3287 -28.2482 -10.4589 -10.3034 -10.1434  -9.9794  -9.7765  -9.5573
     6.9825   7.6599   7.8737   9.2524

          k = 0.2676 0.6695 0.2094 (  3540 PWs)   bands (ev):

   -28.3162 -28.2574 -10.6223 -10.4962 -10.2703  -9.6857  -9.6497  -9.5056
     7.2272   8.0057   8.1917   8.8552

          k = 0.2676 0.6695 0.3490 (  3536 PWs)   bands (ev):

   -28.2958 -28.2744 -10.7467 -10.6998 -10.0991  -9.8786  -9.4359  -9.3807
     7.6690   8.2290   8.4666   8.5663

          k = 0.2676-0.3605 0.0698 (  3535 PWs)   bands (ev):

   -28.4244 -28.1887 -10.4983 -10.2935 -10.0908  -9.9343  -9.5842  -9.4909
     5.7599   7.7675   8.4164   9.5292

          k = 0.2676-0.3605 0.2094 (  3539 PWs)   bands (ev):

   -28.3924 -28.2195 -10.6743 -10.3831 -10.0448  -9.8041  -9.5872  -9.4192
     6.1116   7.8898   8.6788   9.0995

          k = 0.2676-0.3605 0.3490 (  3539 PWs)   bands (ev):

   -28.3369 -28.2735 -10.7168 -10.6010  -9.9271  -9.7521  -9.5382  -9.3984
     6.7370   7.4798   8.9832   9.0387

          k = 0.2676-0.1545 0.0698 (  3528 PWs)   bands (ev):

   -28.5071 -28.1559 -10.6531 -10.1269  -9.9630  -9.8165  -9.4450  -9.4354
     4.6263   7.4149   9.5149   9.9319

          k = 0.2676-0.1545 0.2094 (  3534 PWs)   bands (ev):

   -28.4604 -28.2036 -10.6781 -10.1346  -9.8943  -9.8737  -9.5082  -9.3907
     5.0557   7.3069   9.6242   9.7570

          k = 0.2676-0.1545 0.3490 (  3539 PWs)   bands (ev):

   -28.3796 -28.2853 -10.6039 -10.4040  -9.7739  -9.6450  -9.6326  -9.4596
     5.8100   6.6874   9.7569   9.9075

          k = 0.4460 0.7725 0.0698 (  3541 PWs)   bands (ev):

   -28.3471 -28.2344 -10.5178 -10.2422 -10.1339 -10.0241  -9.7415  -9.5100
     7.0133   7.4081   7.8852   9.2938

          k = 0.4460 0.7725 0.2094 (  3526 PWs)   bands (ev):

   -28.3299 -28.2475 -10.7043 -10.4650 -10.1799  -9.7185  -9.6319  -9.4811
     7.2245   7.7633   8.1872   8.8613

          k = 0.4460 0.7725 0.3490 (  3539 PWs)   bands (ev):

   -28.3031 -28.2727 -10.7909 -10.7071 -10.0128  -9.8095  -9.4801  -9.3918
     7.6269   8.0875   8.4133   8.4758

          k = 0.4460-0.2575 0.0698 (  3552 PWs)   bands (ev):

   -28.3964 -28.2044 -10.5556 -10.2435 -10.0582 -10.0567  -9.6490  -9.4370
     6.2711   7.7824   7.8411   9.4367

          k = 0.4460-0.2575 0.2094 (  3538 PWs)   bands (ev):

   -28.3694 -28.2283 -10.7587 -10.4187  -9.9783  -9.8695  -9.5237  -9.4663
     6.5679   7.9496   8.1356   8.9724

          k = 0.4460-0.2575 0.3490 (  3532 PWs)   bands (ev):

   -28.3237 -28.2714 -10.8087 -10.6846  -9.8376  -9.6712  -9.5895  -9.4391
     7.0890   7.6996   8.5359   8.7354

!    total energy              =    -151.27681752 Ry
     Harris-Foulkes estimate   =    -151.27681752 Ry
     estimated scf accuracy    <          2.2E-09 Ry

     The total energy is the sum of the following terms:

     one-electron contribution =     -30.74146518 Ry
     hartree contribution      =      24.83385300 Ry
     xc contribution           =     -24.12566029 Ry
     ewald contribution        =    -121.24354505 Ry

     convergence has been achieved in  12 iterations

     Forces acting on atoms (Ry/au):

     atom    1 type  2   force =     0.00000000   -0.00000000   -0.00000000
     atom    2 type  2   force =    -0.00000000    0.00000000    0.00000000
     atom    3 type  1   force =    -0.00000000   -0.00000000   -0.00000000
     atom    4 type  1   force =     0.00000000    0.00000000   -0.00000000
     atom    5 type  1   force =     0.00000000    0.00000000    0.00000000
     atom    6 type  1   force =    -0.00000000    0.00000000    0.00000000

     Total force =     0.000000     Total SCF correction =     0.000000


     entering subroutine stress ...

          total   stress  (Ry/bohr**3)                   (kbar)     P=  584.43
   0.00397700  -0.00000000   0.00000000        585.04     -0.00      0.00
  -0.00000000   0.00397700   0.00000000         -0.00    585.04      0.00
   0.00000000   0.00000000   0.00396453          0.00      0.00    583.20


     Writing output data file CaH2_ambient.save

     init_run     :     38.91s CPU     39.20s WALL (       2 calls)
     electrons    :    511.16s CPU    517.56s WALL (       6 calls)
     update_pot   :    163.80s CPU    164.88s WALL (       4 calls)
     forces       :     71.35s CPU     71.54s WALL (       6 calls)
     stress       :    152.98s CPU    153.53s WALL (       6 calls)

     Called by init_run:
     wfcinit      :      7.11s CPU      7.28s WALL (       2 calls)
     potinit      :     14.41s CPU     14.47s WALL (       2 calls)

     Called by electrons:
     c_bands      :    418.02s CPU    422.49s WALL (      50 calls)
     sum_band     :     79.58s CPU     80.99s WALL (      50 calls)
     v_of_rho     :      7.61s CPU      7.75s WALL (      55 calls)
     mix_rho      :      6.43s CPU      6.74s WALL (      50 calls)

     Called by c_bands:
     init_us_2    :     11.39s CPU     12.33s WALL (    4104 calls)
     cegterg      :    411.94s CPU    414.44s WALL (    1800 calls)

     Called by *egterg:
     h_psi        :    338.71s CPU    340.51s WALL (    5617 calls)
     g_psi        :      2.44s CPU      2.47s WALL (    3745 calls)
     cdiaghg      :      2.59s CPU      2.66s WALL (    5365 calls)

     Called by h_psi:
     add_vuspsi   :      5.07s CPU      5.05s WALL (    5617 calls)

     General routines
     calbec       :      5.39s CPU      5.45s WALL (    6049 calls)
     fft          :      2.16s CPU      2.18s WALL (     653 calls)
     ffts         :      2.76s CPU      2.79s WALL (     833 calls)
     fftw         :    317.13s CPU    318.85s WALL (  139652 calls)
     davcio       :      1.42s CPU      3.46s WALL (    5904 calls)


     PWSCF        : 15m38.97s CPU    15m47.53s WALL


   This run was terminated on:  16:16:27   3Jun2014            

=------------------------------------------------------------------------------=
   JOB DONE.
=------------------------------------------------------------------------------=
