
     Program PWSCF v.5.0.2 (svn rev. 9392) starts on  3Jun2014 at 16:16:27 

     This program is part of the open-source Quantum ESPRESSO suite
     for quantum simulation of materials; please cite
         "P. Giannozzi et al., J. Phys.:Condens. Matter 21 395502 (2009);
          URL http://www.quantum-espresso.org", 
     in publications or presentations arising from this work. More details at
     http://www.quantum-espresso.org/quote.php

     Serial version

     Current dimensions of program PWSCF are:
     Max number of different atomic species (ntypx) = 10
     Max number of k-points (npk) =  40000
     Max angular momentum in pseudopotentials (lmaxx) =  3
     Waiting for input...
     Reading input from standard input

     G-vector sticks info
     --------------------
     sticks:   dense  smooth     PW     G-vecs:    dense   smooth      PW
     Sum        1039    1039    313                35601    35601    5799



     bravais-lattice index     =            4
     lattice parameter (alat)  =       6.8695  a.u.
     unit-cell volume          =     367.8832 (a.u.)^3
     number of atoms/cell      =            6
     number of atomic types    =            2
     number of electrons       =        24.00
     number of Kohn-Sham states=           12
     kinetic-energy cutoff     =      80.0000  Ry
     charge density cutoff     =     320.0000  Ry
     convergence threshold     =      1.0E-06
     mixing beta               =       0.3000
     number of iterations used =           16  local-TF  mixing
     Exchange-correlation      = PBE ( 1 4 3 4 0)
     EXX-fraction              =        0.00
     nstep                     =           50


     celldm(1)=   6.869500  celldm(2)=   0.000000  celldm(3)=   1.310400
     celldm(4)=   0.000000  celldm(5)=   0.000000  celldm(6)=   0.000000

     crystal axes: (cart. coord. in units of alat)
               a(1) = (   1.000000   0.000000   0.000000 )  
               a(2) = (  -0.500000   0.866025   0.000000 )  
               a(3) = (   0.000000   0.000000   1.310400 )  

     reciprocal axes: (cart. coord. in units 2 pi/alat)
               b(1) = (  1.000000  0.577350 -0.000000 )  
               b(2) = (  0.000000  1.154701  0.000000 )  
               b(3) = (  0.000000 -0.000000  0.763126 )  


     PseudoPot. # 1 for H  read from file:
     /home/ilia/espresso/pseudo/H.pbe-sp-mt.ncpp
     MD5 check sum: 7a641936b52ccecd26bd1ad87cca5aed
     Pseudo is Norm-conserving, Zval =  1.0
     Generated by old ld1 code (numerical format)
     Using radial grid of 1076 points,  0 beta functions with: 

     PseudoPot. # 2 for Ca read from file:
     /home/ilia/espresso/pseudo/Ca.pbe-sp-mt_ion2.ncpp
     MD5 check sum: 4bcd670d05521f7b178fdf0a334578ab
     Pseudo is Norm-conserving, Zval = 10.0
     Generated by old ld1 code (numerical format)
     Using radial grid of 1153 points,  1 beta functions with: 
                l(1) =   1

     atomic species   valence    mass     pseudopotential
        H              1.00     1.00700     H ( 1.00)
        Ca            10.00    40.07800     Ca( 1.00)

     24 Sym. Ops., with inversion, found (12 have fractional translation)



   Cartesian axes

     site n.     atom                  positions (alat units)
         1           Ca  tau(   1) = (   0.0000000   0.5773503   0.3276000  )
         2           Ca  tau(   2) = (   0.5000000   0.2886751   0.9828000  )
         3           H   tau(   3) = (   0.0000000   0.5773503   0.9828000  )
         4           H   tau(   4) = (   0.5000000   0.2886751   0.3276000  )
         5           H   tau(   5) = (   0.0000000   0.0000000   0.0000000  )
         6           H   tau(   6) = (   0.0000000   0.0000000   0.6552000  )

     number of k points=    36
                       cart. coord. in units 2pi/alat
        k(    1) = (   0.0833333   0.1443376   0.0635938), wk =   0.0370370
        k(    2) = (   0.0833333   0.1443376   0.1907814), wk =   0.0370370
        k(    3) = (   0.0833333   0.1443376   0.3179691), wk =   0.0370370
        k(    4) = (   0.0833333   0.3367877   0.0635938), wk =   0.0740741
        k(    5) = (   0.0833333   0.3367877   0.1907814), wk =   0.0740741
        k(    6) = (   0.0833333   0.3367877   0.3179691), wk =   0.0740741
        k(    7) = (   0.0833333   0.5292377   0.0635938), wk =   0.0740741
        k(    8) = (   0.0833333   0.5292377   0.1907814), wk =   0.0740741
        k(    9) = (   0.0833333   0.5292377   0.3179691), wk =   0.0740741
        k(   10) = (   0.0833333  -0.4330127   0.0635938), wk =   0.0740741
        k(   11) = (   0.0833333  -0.4330127   0.1907814), wk =   0.0740741
        k(   12) = (   0.0833333  -0.4330127   0.3179691), wk =   0.0740741
        k(   13) = (   0.0833333  -0.2405626   0.0635938), wk =   0.0740741
        k(   14) = (   0.0833333  -0.2405626   0.1907814), wk =   0.0740741
        k(   15) = (   0.0833333  -0.2405626   0.3179691), wk =   0.0740741
        k(   16) = (   0.0833333  -0.0481125   0.0635938), wk =   0.0370370
        k(   17) = (   0.0833333  -0.0481125   0.1907814), wk =   0.0370370
        k(   18) = (   0.0833333  -0.0481125   0.3179691), wk =   0.0370370
        k(   19) = (   0.2500000   0.4330127   0.0635938), wk =   0.0370370
        k(   20) = (   0.2500000   0.4330127   0.1907814), wk =   0.0370370
        k(   21) = (   0.2500000   0.4330127   0.3179691), wk =   0.0370370
        k(   22) = (   0.2500000   0.6254628   0.0635938), wk =   0.0740741
        k(   23) = (   0.2500000   0.6254628   0.1907814), wk =   0.0740741
        k(   24) = (   0.2500000   0.6254628   0.3179691), wk =   0.0740741
        k(   25) = (   0.2500000  -0.3367877   0.0635938), wk =   0.0740741
        k(   26) = (   0.2500000  -0.3367877   0.1907814), wk =   0.0740741
        k(   27) = (   0.2500000  -0.3367877   0.3179691), wk =   0.0740741
        k(   28) = (   0.2500000  -0.1443376   0.0635938), wk =   0.0370370
        k(   29) = (   0.2500000  -0.1443376   0.1907814), wk =   0.0370370
        k(   30) = (   0.2500000  -0.1443376   0.3179691), wk =   0.0370370
        k(   31) = (   0.4166667   0.7216878   0.0635938), wk =   0.0370370
        k(   32) = (   0.4166667   0.7216878   0.1907814), wk =   0.0370370
        k(   33) = (   0.4166667   0.7216878   0.3179691), wk =   0.0370370
        k(   34) = (   0.4166667  -0.2405626   0.0635938), wk =   0.0370370
        k(   35) = (   0.4166667  -0.2405626   0.1907814), wk =   0.0370370
        k(   36) = (   0.4166667  -0.2405626   0.3179691), wk =   0.0370370

     Dense  grid:    35601 G-vectors     FFT dimensions: (  40,  40,  54)

     Largest allocated arrays     est. size (Mb)     dimensions
        Kohn-Sham Wavefunctions         0.82 Mb     (   4465,   12)
        NL pseudopotentials             0.41 Mb     (   4465,    6)
        Each V/rho on FFT grid          1.32 Mb     (  86400)
        Each G-vector array             0.27 Mb     (  35601)
        G-vector shells                 0.27 Mb     (  35601)
     Largest temporary arrays     est. size (Mb)     dimensions
        Auxiliary wavefunctions         3.27 Mb     (   4465,   48)
        Each subspace H/S matrix        0.04 Mb     (  48,  48)
        Each <psi_i|beta_j> matrix      0.00 Mb     (      6,   12)
        Arrays for rho mixing          21.09 Mb     (  86400,  16)

     Initial potential from superposition of free atoms

     starting charge   19.99996, renormalised to   24.00000
     Starting wfc are   12 randomized atomic wfcs

     total cpu time spent up to now is       33.4 secs

     per-process dynamical memory:    18.0 Mb

     Self-consistent Calculation

     iteration #  1     ecut=    80.00 Ry     beta=0.30
     Davidson diagonalization with overlap
     ethr =  1.00E-02,  avg # of iterations =  2.0

     total cpu time spent up to now is       45.4 secs

     total energy              =    -153.07279251 Ry
     Harris-Foulkes estimate   =    -154.21365382 Ry
     estimated scf accuracy    <       5.60363544 Ry

     iteration #  2     ecut=    80.00 Ry     beta=0.30
     Davidson diagonalization with overlap
     ethr =  1.00E-02,  avg # of iterations =  1.0

     total cpu time spent up to now is       53.9 secs

     total energy              =    -150.83698953 Ry
     Harris-Foulkes estimate   =    -153.13636637 Ry
     estimated scf accuracy    <       3.36085036 Ry

     iteration #  3     ecut=    80.00 Ry     beta=0.30
     Davidson diagonalization with overlap
     ethr =  1.00E-02,  avg # of iterations =  2.0

     total cpu time spent up to now is       65.9 secs

     total energy              =    -151.46406444 Ry
     Harris-Foulkes estimate   =    -151.46887677 Ry
     estimated scf accuracy    <       0.12171909 Ry

     iteration #  4     ecut=    80.00 Ry     beta=0.30
     Davidson diagonalization with overlap
     ethr =  5.07E-04,  avg # of iterations =  1.2

     total cpu time spent up to now is       74.4 secs

     total energy              =    -151.46762627 Ry
     Harris-Foulkes estimate   =    -151.46640676 Ry
     estimated scf accuracy    <       0.07585957 Ry

     iteration #  5     ecut=    80.00 Ry     beta=0.30
     Davidson diagonalization with overlap
     ethr =  3.16E-04,  avg # of iterations =  2.0

     total cpu time spent up to now is       83.9 secs

     total energy              =    -151.47348455 Ry
     Harris-Foulkes estimate   =    -151.47365066 Ry
     estimated scf accuracy    <       0.00214786 Ry

     iteration #  6     ecut=    80.00 Ry     beta=0.30
     Davidson diagonalization with overlap
     ethr =  8.95E-06,  avg # of iterations =  2.1

     total cpu time spent up to now is       93.0 secs

     total energy              =    -151.47376356 Ry
     Harris-Foulkes estimate   =    -151.47362701 Ry
     estimated scf accuracy    <       0.00104735 Ry

     iteration #  7     ecut=    80.00 Ry     beta=0.30
     Davidson diagonalization with overlap
     ethr =  4.36E-06,  avg # of iterations =  2.0

     total cpu time spent up to now is      102.4 secs

     total energy              =    -151.47368567 Ry
     Harris-Foulkes estimate   =    -151.47383291 Ry
     estimated scf accuracy    <       0.00022358 Ry

     iteration #  8     ecut=    80.00 Ry     beta=0.30
     Davidson diagonalization with overlap
     ethr =  9.32E-07,  avg # of iterations =  2.0

     total cpu time spent up to now is      114.0 secs

     total energy              =    -151.47372341 Ry
     Harris-Foulkes estimate   =    -151.47372142 Ry
     estimated scf accuracy    <       0.00000279 Ry

     iteration #  9     ecut=    80.00 Ry     beta=0.30
     Davidson diagonalization with overlap
     ethr =  1.16E-08,  avg # of iterations =  2.8

     total cpu time spent up to now is      126.7 secs

     total energy              =    -151.47372133 Ry
     Harris-Foulkes estimate   =    -151.47372645 Ry
     estimated scf accuracy    <       0.00001100 Ry

     iteration # 10     ecut=    80.00 Ry     beta=0.30
     Davidson diagonalization with overlap
     ethr =  1.16E-08,  avg # of iterations =  2.0

     total cpu time spent up to now is      138.6 secs

     End of self-consistent calculation

          k = 0.0833 0.1443 0.0636 (  4433 PWs)   bands (ev):

   -31.6045 -31.4301 -13.5095 -13.0075 -12.9923 -12.8512 -12.7664 -12.7627
     1.5643   4.8269   7.1756   8.3198

          k = 0.0833 0.1443 0.1908 (  4435 PWs)   bands (ev):

   -31.5814 -31.4538 -13.4435 -12.9928 -12.9630 -12.9500 -12.7964 -12.7655
     1.9481   4.3204   7.4758   8.4049

          k = 0.0833 0.1443 0.3180 (  4455 PWs)   bands (ev):

   -31.5420 -31.4949 -13.3182 -13.1536 -12.9074 -12.8905 -12.8481 -12.8153
     2.6401   3.5004   7.9861   8.3634

          k = 0.0833 0.3368 0.0636 (  4441 PWs)   bands (ev):

   -31.5650 -31.4417 -13.4003 -13.1382 -13.0610 -12.9855 -12.8393 -12.7724
     2.6554   5.2232   6.5935   6.9560

          k = 0.0833 0.3368 0.1908 (  4446 PWs)   bands (ev):

   -31.5484 -31.4583 -13.4281 -13.1786 -13.0200 -12.9899 -12.8135 -12.7780
     2.9870   4.9640   6.7066   6.8791

          k = 0.0833 0.3368 0.3180 (  4452 PWs)   bands (ev):

   -31.5199 -31.4870 -13.4051 -13.3136 -12.9564 -12.8852 -12.8679 -12.7914
     3.5876   4.3279   6.8707   6.9496

          k = 0.0833 0.5292 0.0636 (  4457 PWs)   bands (ev):

   -31.5247 -31.4619 -13.3327 -13.1869 -13.1071 -13.0767 -12.9331 -12.7780
     4.1438   4.8981   5.5777   6.7989

          k = 0.0833 0.5292 0.1908 (  4454 PWs)   bands (ev):

   -31.5162 -31.4696 -13.4411 -13.2842 -13.0737 -12.9747 -12.8396 -12.8066
     4.4001   5.1417   5.6477   6.3446

          k = 0.0833 0.5292 0.3180 (  4444 PWs)   bands (ev):

   -31.5010 -31.4837 -13.4726 -13.4157 -12.9923 -12.9044 -12.8501 -12.7901
     4.8552   5.3526   5.6060   5.9050

          k = 0.0833-0.4330 0.0636 (  4446 PWs)   bands (ev):

   -31.5420 -31.4517 -13.3473 -13.1918 -13.0806 -13.0476 -12.8923 -12.7758
     3.3855   5.3047   5.8606   6.8539

          k = 0.0833-0.4330 0.1908 (  4453 PWs)   bands (ev):

   -31.5300 -31.4636 -13.4326 -13.2490 -13.0540 -12.9852 -12.8262 -12.7959
     3.6822   5.2870   5.9805   6.5531

          k = 0.0833-0.4330 0.3180 (  4446 PWs)   bands (ev):

   -31.5089 -31.4838 -13.4474 -13.3795 -12.9792 -12.8966 -12.8585 -12.7891
     4.2158   4.8549   6.2109   6.4016

          k = 0.0833-0.2406 0.0636 (  4445 PWs)   bands (ev):

   -31.5873 -31.4349 -13.4613 -13.0632 -13.0299 -12.9170 -12.7930 -12.7690
     2.0265   5.0258   7.0726   7.4478

          k = 0.0833-0.2406 0.1908 (  4435 PWs)   bands (ev):

   -31.5668 -31.4549 -13.4334 -13.0853 -12.9837 -12.9791 -12.8037 -12.7651
     2.3880   4.6095   7.1761   7.5724

          k = 0.0833-0.2406 0.3180 (  4447 PWs)   bands (ev):

   -31.5318 -31.4908 -13.3578 -13.2318 -12.9300 -12.8857 -12.8615 -12.8003
     3.0422   3.8556   7.4642   7.6438

          k = 0.0833-0.0481 0.0636 (  4430 PWs)   bands (ev):

   -31.6138 -31.4283 -13.5357 -12.9786 -12.9695 -12.8043 -12.7656 -12.7516
     1.3194   4.7053   7.2332   8.9760

          k = 0.0833-0.0481 0.1908 (  4422 PWs)   bands (ev):

   -31.5890 -31.4532 -13.4509 -12.9476 -12.9423 -12.9196 -12.7931 -12.7766
     1.7153   4.1596   7.6503   9.0287

          k = 0.0833-0.0481 0.3180 (  4450 PWs)   bands (ev):

   -31.5472 -31.4973 -13.2960 -13.1030 -12.8952 -12.8913 -12.8406 -12.8289
     2.4268   3.3101   8.3230   8.8787

          k = 0.2500 0.4330 0.0636 (  4434 PWs)   bands (ev):

   -31.5244 -31.4608 -13.2900 -13.2275 -13.0878 -13.0736 -12.9220 -12.8165
     3.8450   5.3470   5.5953   6.8153

          k = 0.2500 0.4330 0.1908 (  4442 PWs)   bands (ev):

   -31.5160 -31.4691 -13.3961 -13.2888 -13.1247 -12.9403 -12.8647 -12.8086
     4.1216   5.4218   5.7947   6.4454

          k = 0.2500 0.4330 0.3180 (  4447 PWs)   bands (ev):

   -31.5011 -31.4837 -13.4377 -13.3957 -13.0529 -12.9570 -12.8160 -12.7698
     4.6124   5.1692   6.0600   6.2077

          k = 0.2500 0.6255 0.0636 (  4440 PWs)   bands (ev):

   -31.5065 -31.4733 -13.2674 -13.2205 -13.1337 -13.0574 -12.9676 -12.8296
     4.4557   5.0850   5.3689   6.7890

          k = 0.2500 0.6255 0.1908 (  4450 PWs)   bands (ev):

   -31.5021 -31.4777 -13.3783 -13.3092 -13.1709 -12.9077 -12.8837 -12.8309
     4.6942   5.3140   5.5419   6.3924

          k = 0.2500 0.6255 0.3180 (  4441 PWs)   bands (ev):

   -31.4937 -31.4850 -13.4393 -13.4139 -13.0846 -12.9796 -12.7971 -12.7706
     5.1135   5.5112   5.7150   5.9273

          k = 0.2500-0.3368 0.0636 (  4442 PWs)   bands (ev):

   -31.5458 -31.4497 -13.3478 -13.1808 -13.0954 -13.0204 -12.8769 -12.7939
     3.2127   5.3231   6.0724   6.8735

          k = 0.2500-0.3368 0.1908 (  4438 PWs)   bands (ev):

   -31.5328 -31.4620 -13.4163 -13.2412 -13.0671 -12.9709 -12.8397 -12.7883
     3.5190   5.2262   6.2416   6.6144

          k = 0.2500-0.3368 0.3180 (  4444 PWs)   bands (ev):

   -31.5104 -31.4843 -13.4272 -13.3609 -13.0041 -12.9203 -12.8425 -12.7769
     4.0708   4.7353   6.4572   6.5484

          k = 0.2500-0.1443 0.0636 (  4444 PWs)   bands (ev):

   -31.5794 -31.4371 -13.4400 -13.1016 -13.0224 -12.9553 -12.8104 -12.7637
     2.2441   5.1034   7.0159   7.1184

          k = 0.2500-0.1443 0.1908 (  4445 PWs)   bands (ev):

   -31.5605 -31.4561 -13.4325 -13.1194 -12.9958 -12.9882 -12.7989 -12.7733
     2.5950   4.7372   7.0268   7.2631

          k = 0.2500-0.1443 0.3180 (  4452 PWs)   bands (ev):

   -31.5276 -31.4894 -13.3776 -13.2647 -12.9287 -12.8896 -12.8594 -12.8028
     3.2306   4.0198   7.2361   7.3628

          k = 0.4167 0.7217 0.0636 (  4450 PWs)   bands (ev):

   -31.5146 -31.4680 -13.3066 -13.1902 -13.1266 -13.0713 -12.9538 -12.8048
     4.5152   4.7488   5.5149   6.7895

          k = 0.4167 0.7217 0.1908 (  4439 PWs)   bands (ev):

   -31.5076 -31.4736 -13.4152 -13.2947 -13.1307 -12.9331 -12.8690 -12.8153
     4.7323   5.0253   5.6455   6.3483

          k = 0.4167 0.7217 0.3180 (  4442 PWs)   bands (ev):

   -31.4966 -31.4842 -13.4592 -13.4162 -13.0454 -12.9477 -12.8183 -12.7759
     5.1394   5.4029   5.7020   5.7605

          k = 0.4167-0.2406 0.0636 (  4457 PWs)   bands (ev):

   -31.5350 -31.4557 -13.3445 -13.1932 -13.0850 -13.0699 -12.9119 -12.7668
     3.7117   5.1722   5.6499   6.8232

          k = 0.4167-0.2406 0.1908 (  4465 PWs)   bands (ev):

   -31.5242 -31.4666 -13.4457 -13.2675 -13.0302 -13.0099 -12.8161 -12.8083
     3.9914   5.3303   5.6867   6.4354

          k = 0.4167-0.2406 0.3180 (  4445 PWs)   bands (ev):

   -31.5052 -31.4838 -13.4678 -13.4026 -12.9607 -12.8795 -12.8727 -12.8008
     4.4917   5.0801   5.8795   6.1533

!    total energy              =    -151.47372293 Ry
     Harris-Foulkes estimate   =    -151.47372295 Ry
     estimated scf accuracy    <       0.00000006 Ry

     The total energy is the sum of the following terms:

     one-electron contribution =     -43.98543225 Ry
     hartree contribution      =      28.58806407 Ry
     xc contribution           =     -23.69889745 Ry
     ewald contribution        =    -112.37745729 Ry

     convergence has been achieved in  10 iterations

     Forces acting on atoms (Ry/au):

     atom    1 type  2   force =     0.00000000   -0.00000000    0.00000000
     atom    2 type  2   force =     0.00000000    0.00000000    0.00000000
     atom    3 type  1   force =    -0.00000000    0.00000000    0.00000000
     atom    4 type  1   force =     0.00000000   -0.00000000   -0.00000000
     atom    5 type  1   force =    -0.00000000   -0.00000000   -0.00000000
     atom    6 type  1   force =     0.00000000    0.00000000   -0.00000000

     Total force =     0.000000     Total SCF correction =     0.000000


     entering subroutine stress ...

          total   stress  (Ry/bohr**3)                   (kbar)     P=  201.96
   0.00134506  -0.00000000   0.00000000        197.87     -0.00      0.00
  -0.00000000   0.00134506   0.00000000         -0.00    197.87      0.00
   0.00000000   0.00000000   0.00142857          0.00      0.00    210.15


     BFGS Geometry Optimization

     number of scf cycles    =   1
     number of bfgs steps    =   0

     enthalpy new            =    -148.9729036690 Ry

     new trust radius        =       0.5000000000 bohr
     new conv_thr            =       0.0000010000 Ry

     new unit-cell volume =    242.52182 a.u.^3 (    35.93803 Ang^3 )

CELL_PARAMETERS (alat=  6.86950000)
   0.869657795  -0.000000000   0.000000000
  -0.434828898   0.753145743   0.000000000
   0.000000000   0.000000000   1.142215398

ATOMIC_POSITIONS (crystal)
Ca       0.333333333   0.666666667   0.250000000
Ca       0.666666667   0.333333333   0.750000000
H        0.333333333   0.666666667   0.750000000
H        0.666666667   0.333333333   0.250000000
H       -0.000000000  -0.000000000  -0.000000000
H        0.000000000   0.000000000   0.500000000



     Writing output data file CaH2_ambient.save
     NEW-OLD atomic charge density approx. for the potential
     NEW k-points:
        k(    1) = (   0.0958231   0.1659705   0.0729576), wk =   0.0370370
        k(    2) = (   0.0958231   0.1659705   0.2188729), wk =   0.0370370
        k(    3) = (   0.0958231   0.1659705   0.3647882), wk =   0.0370370
        k(    4) = (   0.0958231   0.3872646   0.0729576), wk =   0.0740741
        k(    5) = (   0.0958231   0.3872646   0.2188729), wk =   0.0740741
        k(    6) = (   0.0958231   0.3872646   0.3647882), wk =   0.0740741
        k(    7) = (   0.0958231   0.6085586   0.0729576), wk =   0.0740741
        k(    8) = (   0.0958231   0.6085586   0.2188729), wk =   0.0740741
        k(    9) = (   0.0958231   0.6085586   0.3647882), wk =   0.0740741
        k(   10) = (   0.0958231  -0.4979116   0.0729576), wk =   0.0740741
        k(   11) = (   0.0958231  -0.4979116   0.2188729), wk =   0.0740741
        k(   12) = (   0.0958231  -0.4979116   0.3647882), wk =   0.0740741
        k(   13) = (   0.0958231  -0.2766176   0.0729576), wk =   0.0740741
        k(   14) = (   0.0958231  -0.2766176   0.2188729), wk =   0.0740741
        k(   15) = (   0.0958231  -0.2766176   0.3647882), wk =   0.0740741
        k(   16) = (   0.0958231  -0.0553235   0.0729576), wk =   0.0370370
        k(   17) = (   0.0958231  -0.0553235   0.2188729), wk =   0.0370370
        k(   18) = (   0.0958231  -0.0553235   0.3647882), wk =   0.0370370
        k(   19) = (   0.2874694   0.4979116   0.0729576), wk =   0.0370370
        k(   20) = (   0.2874694   0.4979116   0.2188729), wk =   0.0370370
        k(   21) = (   0.2874694   0.4979116   0.3647882), wk =   0.0370370
        k(   22) = (   0.2874694   0.7192056   0.0729576), wk =   0.0740741
        k(   23) = (   0.2874694   0.7192056   0.2188729), wk =   0.0740741
        k(   24) = (   0.2874694   0.7192056   0.3647882), wk =   0.0740741
        k(   25) = (   0.2874694  -0.3872646   0.0729576), wk =   0.0740741
        k(   26) = (   0.2874694  -0.3872646   0.2188729), wk =   0.0740741
        k(   27) = (   0.2874694  -0.3872646   0.3647882), wk =   0.0740741
        k(   28) = (   0.2874694  -0.1659705   0.0729576), wk =   0.0370370
        k(   29) = (   0.2874694  -0.1659705   0.2188729), wk =   0.0370370
        k(   30) = (   0.2874694  -0.1659705   0.3647882), wk =   0.0370370
        k(   31) = (   0.4791157   0.8298527   0.0729576), wk =   0.0370370
        k(   32) = (   0.4791157   0.8298527   0.2188729), wk =   0.0370370
        k(   33) = (   0.4791157   0.8298527   0.3647882), wk =   0.0370370
        k(   34) = (   0.4791157  -0.2766176   0.0729576), wk =   0.0370370
        k(   35) = (   0.4791157  -0.2766176   0.2188729), wk =   0.0370370
        k(   36) = (   0.4791157  -0.2766176   0.3647882), wk =   0.0370370
     extrapolated charge   13.66187, renormalised to   24.00000

     total cpu time spent up to now is      224.5 secs

     per-process dynamical memory:    23.0 Mb

     Self-consistent Calculation

     iteration #  1     ecut=    80.00 Ry     beta=0.30
     Davidson diagonalization with overlap
     ethr =  1.00E-06,  avg # of iterations = 12.0

     total cpu time spent up to now is      252.8 secs

     total energy              =    -151.76435372 Ry
     Harris-Foulkes estimate   =    -156.19659849 Ry
     estimated scf accuracy    <      13.73688841 Ry

     iteration #  2     ecut=    80.00 Ry     beta=0.30
     Davidson diagonalization with overlap
     ethr =  1.00E-02,  avg # of iterations =  3.0

     total cpu time spent up to now is      265.6 secs

     total energy              =    -151.22421109 Ry
     Harris-Foulkes estimate   =    -153.29991532 Ry
     estimated scf accuracy    <       4.50482484 Ry

     iteration #  3     ecut=    80.00 Ry     beta=0.30
     Davidson diagonalization with overlap
     ethr =  1.00E-02,  avg # of iterations =  2.0

     total cpu time spent up to now is      275.5 secs

     total energy              =    -150.93060611 Ry
     Harris-Foulkes estimate   =    -151.45923717 Ry
     estimated scf accuracy    <       0.94574191 Ry

     iteration #  4     ecut=    80.00 Ry     beta=0.30
     Davidson diagonalization with overlap
     ethr =  3.94E-03,  avg # of iterations =  2.0

     total cpu time spent up to now is      286.1 secs

     total energy              =    -150.97870969 Ry
     Harris-Foulkes estimate   =    -151.03097293 Ry
     estimated scf accuracy    <       0.12895811 Ry

     iteration #  5     ecut=    80.00 Ry     beta=0.30
     Davidson diagonalization with overlap
     ethr =  5.37E-04,  avg # of iterations =  2.1

     total cpu time spent up to now is      295.4 secs

     total energy              =    -150.98359835 Ry
     Harris-Foulkes estimate   =    -150.98930878 Ry
     estimated scf accuracy    <       0.00981542 Ry

     iteration #  6     ecut=    80.00 Ry     beta=0.30
     Davidson diagonalization with overlap
     ethr =  4.09E-05,  avg # of iterations =  2.0

     total cpu time spent up to now is      307.3 secs

     total energy              =    -150.98593922 Ry
     Harris-Foulkes estimate   =    -150.98569524 Ry
     estimated scf accuracy    <       0.00022271 Ry

     iteration #  7     ecut=    80.00 Ry     beta=0.30
     Davidson diagonalization with overlap
     ethr =  9.28E-07,  avg # of iterations =  2.0

     total cpu time spent up to now is      319.5 secs

     total energy              =    -150.98570332 Ry
     Harris-Foulkes estimate   =    -150.98601377 Ry
     estimated scf accuracy    <       0.00041747 Ry

     iteration #  8     ecut=    80.00 Ry     beta=0.30
     Davidson diagonalization with overlap
     ethr =  9.28E-07,  avg # of iterations =  2.0

     total cpu time spent up to now is      331.5 secs

     total energy              =    -150.98581484 Ry
     Harris-Foulkes estimate   =    -150.98582648 Ry
     estimated scf accuracy    <       0.00002153 Ry

     iteration #  9     ecut=    80.00 Ry     beta=0.30
     Davidson diagonalization with overlap
     ethr =  8.97E-08,  avg # of iterations =  2.2

     total cpu time spent up to now is      343.7 secs

     total energy              =    -150.98580650 Ry
     Harris-Foulkes estimate   =    -150.98583947 Ry
     estimated scf accuracy    <       0.00004515 Ry

     iteration # 10     ecut=    80.00 Ry     beta=0.30
     Davidson diagonalization with overlap
     ethr =  8.97E-08,  avg # of iterations =  2.0

     total cpu time spent up to now is      355.5 secs

     End of self-consistent calculation

          k = 0.0958 0.1660 0.0730 (  4433 PWs)   bands (ev):

   -25.8091 -25.0359  -8.3315  -6.9868  -6.9185  -6.5221  -6.2384  -6.0482
     6.2945   9.2970  13.0826  13.6704

          k = 0.0958 0.1660 0.2189 (  4435 PWs)   bands (ev):

   -25.7105 -25.1447  -8.1570  -6.9303  -6.8355  -6.7579  -6.3286  -6.1314
     6.8514   9.2746  12.8491  13.8095

          k = 0.0958 0.1660 0.3648 (  4455 PWs)   bands (ev):

   -25.5362 -25.3292  -7.8176  -7.3610  -6.6549  -6.5889  -6.4825  -6.3278
     7.7734   8.7356  13.1441  13.7021

          k = 0.0958 0.3873 0.0730 (  4441 PWs)   bands (ev):

   -25.6172 -25.0688  -8.0268  -7.5173  -7.1963  -6.9508  -6.3026  -6.2611
     7.9256  10.0976  11.5274  12.1438

          k = 0.0958 0.3873 0.2189 (  4446 PWs)   bands (ev):

   -25.5445 -25.1429  -8.1993  -7.5881  -7.0180  -6.9204  -6.3938  -6.1635
     8.3049  10.2526  11.6571  11.8551

          k = 0.0958 0.3873 0.3648 (  4452 PWs)   bands (ev):

   -25.4180 -25.2709  -8.1816  -7.9465  -6.8377  -6.6104  -6.5080  -6.2278
     8.9830   9.7940  11.8180  12.0317

          k = 0.0958 0.6086 0.0730 (  4457 PWs)   bands (ev):

   -25.4213 -25.1460  -8.1156  -7.4820  -7.3573  -7.2022  -6.6245  -6.2892
     9.2825  10.2050  10.7576  11.5414

          k = 0.0958 0.6086 0.2189 (  4454 PWs)   bands (ev):

   -25.3819 -25.1802  -8.3788  -7.8988  -7.2069  -6.8339  -6.4584  -6.2912
     9.4774  10.2917  11.0879  11.4946

          k = 0.0958 0.6086 0.3648 (  4444 PWs)   bands (ev):

   -25.3154 -25.2415  -8.4629  -8.2920  -6.9701  -6.6958  -6.4260  -6.2199
     9.7875  10.1203  11.5385  11.6320

          k = 0.0958-0.4979 0.0730 (  4446 PWs)   bands (ev):

   -25.5048 -25.1062  -8.0098  -7.6057  -7.2724  -7.1325  -6.4785  -6.2791
     8.7616  10.2719  10.9375  11.7485

          k = 0.0958-0.4979 0.2189 (  4453 PWs)   bands (ev):

   -25.4501 -25.1581  -8.2944  -7.8030  -7.1381  -6.8853  -6.4302  -6.2342
     9.0285  10.4764  11.1573  11.5318

          k = 0.0958-0.4979 0.3648 (  4446 PWs)   bands (ev):

   -25.3562 -25.2493  -8.3577  -8.1723  -6.9221  -6.6643  -6.4600  -6.2173
     9.5158  10.1185  11.5355  11.6675

          k = 0.0958-0.2766 0.0730 (  4445 PWs)   bands (ev):

   -25.7254 -25.0462  -8.1890  -7.2239  -7.0751  -6.7369  -6.2512  -6.1463
     7.0319   9.7061  12.4921  12.6376

          k = 0.0958-0.2766 0.2189 (  4435 PWs)   bands (ev):

   -25.6375 -25.1403  -8.1563  -7.2685  -6.9073  -6.8711  -6.3581  -6.1208
     7.5106   9.7540  12.2625  12.6995

          k = 0.0958-0.2766 0.3648 (  4447 PWs)   bands (ev):

   -25.4830 -25.3010  -7.9846  -7.6539  -6.7392  -6.5686  -6.5311  -6.2638
     8.3327   9.2436  12.4155  12.7673

          k = 0.0958-0.0553 0.0730 (  4430 PWs)   bands (ev):

   -25.8545 -25.0325  -8.4098  -6.8673  -6.8229  -6.3556  -6.2340  -6.0088
     5.8775   9.0436  13.3433  14.6831

          k = 0.0958-0.0553 0.2189 (  4422 PWs)   bands (ev):

   -25.7504 -25.1492  -8.1681  -6.7721  -6.7456  -6.6297  -6.3144  -6.1883
     6.4798   8.9906  13.2385  14.7704

          k = 0.0958-0.0553 0.3648 (  4450 PWs)   bands (ev):

   -25.5660 -25.3461  -7.7226  -7.1599  -6.6104  -6.5949  -6.4525  -6.3921
     7.4554   8.4408  13.6964  14.4856

          k = 0.2875 0.4979 0.0730 (  4434 PWs)   bands (ev):

   -25.4253 -25.1420  -7.8435  -7.7712  -7.2504  -7.2105  -6.5951  -6.4426
     9.3524  10.6280  10.6297  11.4664

          k = 0.2875 0.4979 0.2189 (  4442 PWs)   bands (ev):

   -25.3849 -25.1774  -8.1527  -7.9486  -7.4058  -6.7372  -6.6016  -6.2686
     9.5863  11.0102  11.0106  11.1149

          k = 0.2875 0.4979 0.3648 (  4447 PWs)   bands (ev):

   -25.3167 -25.2407  -8.3064  -8.2086  -7.2228  -6.9172  -6.3111  -6.1501
    10.0112  10.5594  11.4792  11.4830

          k = 0.2875 0.7192 0.0730 (  4440 PWs)   bands (ev):

   -25.3400 -25.1952  -7.9447  -7.6293  -7.4057  -7.1066  -6.7606  -6.4947
     9.7185  10.5566  10.7217  11.2961

          k = 0.2875 0.7192 0.2189 (  4450 PWs)   bands (ev):

   -25.3173 -25.2112  -8.1399  -7.9512  -7.6024  -6.7017  -6.5922  -6.3508
     9.9053  10.8589  11.0953  11.2028

          k = 0.2875 0.7192 0.3648 (  4441 PWs)   bands (ev):

   -25.2803 -25.2415  -8.3188  -8.2485  -7.3562  -7.0137  -6.2444  -6.1535
    10.2385  10.6358  11.5471  11.5897

          k = 0.2875-0.3873 0.0730 (  4442 PWs)   bands (ev):

   -25.5250 -25.0976  -7.9073  -7.6618  -7.3192  -7.0431  -6.4338  -6.3508
     8.6600  10.3942  10.9862  11.7780

          k = 0.2875-0.3873 0.2189 (  4438 PWs)   bands (ev):

   -25.4669 -25.1537  -8.1943  -7.8004  -7.1867  -6.8448  -6.5027  -6.1988
     8.9684  10.6588  11.2577  11.4185

          k = 0.2875-0.3873 0.3648 (  4444 PWs)   bands (ev):

   -25.3667 -25.2520  -8.2670  -8.1038  -7.0247  -6.7630  -6.4063  -6.1753
     9.5279  10.2347  11.5383  11.6571

          k = 0.2875-0.1660 0.0730 (  4444 PWs)   bands (ev):

   -25.6875 -25.0529  -8.1298  -7.3824  -7.0101  -6.9024  -6.2286  -6.2007
     7.3464   9.8454  12.1004  12.4585

          k = 0.2875-0.1660 0.2189 (  4445 PWs)   bands (ev):

   -25.6047 -25.1401  -8.1770  -7.3845  -6.9462  -6.9100  -6.3381  -6.1453
     7.7876   9.9281  12.0369  12.3434

          k = 0.2875-0.1660 0.3648 (  4452 PWs)   bands (ev):

   -25.4597 -25.2896  -8.0697  -7.7743  -6.7333  -6.5765  -6.5241  -6.2701
     8.5578   9.4353  12.1685  12.4610

          k = 0.4791 0.8299 0.0730 (  4450 PWs)   bands (ev):

   -25.3740 -25.1730  -8.0549  -7.4879  -7.4252  -7.1688  -6.7053  -6.3952
     9.5723  10.3668  10.7189  11.3982

          k = 0.4791 0.8299 0.2189 (  4439 PWs)   bands (ev):

   -25.3441 -25.1967  -8.2925  -7.9089  -7.4318  -6.6945  -6.5948  -6.3111
     9.7570  10.5093  11.0975  11.3711

          k = 0.4791 0.8299 0.3648 (  4442 PWs)   bands (ev):

   -25.2943 -25.2403  -8.4071  -8.2750  -7.1867  -6.8745  -6.3157  -6.1715
    10.0546  10.3754  11.5610  11.5896

          k = 0.4791-0.2766 0.0730 (  4457 PWs)   bands (ev):

   -25.4679 -25.1228  -8.0970  -7.5335  -7.3098  -7.1725  -6.5448  -6.2445
     8.9758  10.1759  10.8453  11.6696

          k = 0.4791-0.2766 0.2189 (  4465 PWs)   bands (ev):

   -25.4199 -25.1670  -8.3750  -7.8561  -7.0556  -6.9528  -6.3769  -6.2871
     9.1957  10.3019  11.1062  11.5544

          k = 0.4791-0.2766 0.3648 (  4445 PWs)   bands (ev):

   -25.3378 -25.2451  -8.4431  -8.2543  -6.8480  -6.5998  -6.5056  -6.2556
     9.5831  10.0385  11.5325  11.6608

!    total energy              =    -150.98581668 Ry
     Harris-Foulkes estimate   =    -150.98581685 Ry
     estimated scf accuracy    <       0.00000022 Ry

     The total energy is the sum of the following terms:

     one-electron contribution =     -19.08622521 Ry
     hartree contribution      =      21.77502057 Ry
     xc contribution           =     -24.54869362 Ry
     ewald contribution        =    -129.12591842 Ry

     convergence has been achieved in  10 iterations

     Forces acting on atoms (Ry/au):

     atom    1 type  2   force =    -0.00000000   -0.00000000    0.00000000
     atom    2 type  2   force =     0.00000000    0.00000000    0.00000000
     atom    3 type  1   force =    -0.00000000   -0.00000000    0.00000000
     atom    4 type  1   force =     0.00000000    0.00000000   -0.00000000
     atom    5 type  1   force =    -0.00000000   -0.00000000   -0.00000000
     atom    6 type  1   force =    -0.00000000   -0.00000000   -0.00000000

     Total force =     0.000000     Total SCF correction =     0.000000


     entering subroutine stress ...

          total   stress  (Ry/bohr**3)                   (kbar)     P= 1193.93
   0.00867218   0.00000000   0.00000000       1275.72      0.00      0.00
   0.00000000   0.00867218  -0.00000000          0.00   1275.72     -0.00
   0.00000000   0.00000000   0.00700416          0.00      0.00   1030.35


     number of scf cycles    =   2
     number of bfgs steps    =   1

     enthalpy old            =    -148.9729036690 Ry
     enthalpy new            =    -149.3371865999 Ry

     CASE: enthalpy_new < enthalpy_old

     new trust radius        =       0.0999155850 bohr
     new conv_thr            =       0.0000000100 Ry

     new unit-cell volume =    258.70069 a.u.^3 (    38.33549 Ang^3 )

CELL_PARAMETERS (alat=  6.86950000)
   0.897555998   0.000000000   0.000000000
  -0.448777999   0.777306296   0.000000000
   0.000000000  -0.000000000   1.143848378

ATOMIC_POSITIONS (crystal)
Ca       0.333333333   0.666666667   0.250000000
Ca       0.666666667   0.333333333   0.750000000
H        0.333333333   0.666666667   0.750000000
H        0.666666667   0.333333333   0.250000000
H       -0.000000000  -0.000000000  -0.000000000
H       -0.000000000  -0.000000000   0.500000000



     Writing output data file CaH2_ambient.save
     NEW-OLD atomic charge density approx. for the potential
     NEW k-points:
        k(    1) = (   0.0928447   0.1608118   0.0728535), wk =   0.0370370
        k(    2) = (   0.0928447   0.1608118   0.2185604), wk =   0.0370370
        k(    3) = (   0.0928447   0.1608118   0.3642674), wk =   0.0370370
        k(    4) = (   0.0928447   0.3752275   0.0728535), wk =   0.0740741
        k(    5) = (   0.0928447   0.3752275   0.2185604), wk =   0.0740741
        k(    6) = (   0.0928447   0.3752275   0.3642674), wk =   0.0740741
        k(    7) = (   0.0928447   0.5896432   0.0728535), wk =   0.0740741
        k(    8) = (   0.0928447   0.5896432   0.2185604), wk =   0.0740741
        k(    9) = (   0.0928447   0.5896432   0.3642674), wk =   0.0740741
        k(   10) = (   0.0928447  -0.4824353   0.0728535), wk =   0.0740741
        k(   11) = (   0.0928447  -0.4824353   0.2185604), wk =   0.0740741
        k(   12) = (   0.0928447  -0.4824353   0.3642674), wk =   0.0740741
        k(   13) = (   0.0928447  -0.2680196   0.0728535), wk =   0.0740741
        k(   14) = (   0.0928447  -0.2680196   0.2185604), wk =   0.0740741
        k(   15) = (   0.0928447  -0.2680196   0.3642674), wk =   0.0740741
        k(   16) = (   0.0928447  -0.0536039   0.0728535), wk =   0.0370370
        k(   17) = (   0.0928447  -0.0536039   0.2185604), wk =   0.0370370
        k(   18) = (   0.0928447  -0.0536039   0.3642674), wk =   0.0370370
        k(   19) = (   0.2785342   0.4824353   0.0728535), wk =   0.0370370
        k(   20) = (   0.2785342   0.4824353   0.2185604), wk =   0.0370370
        k(   21) = (   0.2785342   0.4824353   0.3642674), wk =   0.0370370
        k(   22) = (   0.2785342   0.6968510   0.0728535), wk =   0.0740741
        k(   23) = (   0.2785342   0.6968510   0.2185604), wk =   0.0740741
        k(   24) = (   0.2785342   0.6968510   0.3642674), wk =   0.0740741
        k(   25) = (   0.2785342  -0.3752275   0.0728535), wk =   0.0740741
        k(   26) = (   0.2785342  -0.3752275   0.2185604), wk =   0.0740741
        k(   27) = (   0.2785342  -0.3752275   0.3642674), wk =   0.0740741
        k(   28) = (   0.2785342  -0.1608118   0.0728535), wk =   0.0370370
        k(   29) = (   0.2785342  -0.1608118   0.2185604), wk =   0.0370370
        k(   30) = (   0.2785342  -0.1608118   0.3642674), wk =   0.0370370
        k(   31) = (   0.4642236   0.8040588   0.0728535), wk =   0.0370370
        k(   32) = (   0.4642236   0.8040588   0.2185604), wk =   0.0370370
        k(   33) = (   0.4642236   0.8040588   0.3642674), wk =   0.0370370
        k(   34) = (   0.4642236  -0.2680196   0.0728535), wk =   0.0370370
        k(   35) = (   0.4642236  -0.2680196   0.2185604), wk =   0.0370370
        k(   36) = (   0.4642236  -0.2680196   0.3642674), wk =   0.0370370
     extrapolated charge   25.25078, renormalised to   24.00000

     total cpu time spent up to now is      441.2 secs

     per-process dynamical memory:    23.0 Mb

     Self-consistent Calculation

     iteration #  1     ecut=    80.00 Ry     beta=0.30
     Davidson diagonalization with overlap
     ethr =  1.00E-06,  avg # of iterations =  4.8

     total cpu time spent up to now is      459.5 secs

     total energy              =    -151.05925710 Ry
     Harris-Foulkes estimate   =    -150.36523334 Ry
     estimated scf accuracy    <       0.06599189 Ry

     iteration #  2     ecut=    80.00 Ry     beta=0.30
     Davidson diagonalization with overlap
     ethr =  2.75E-04,  avg # of iterations =  2.0

     total cpu time spent up to now is      471.6 secs

     total energy              =    -151.10821408 Ry
     Harris-Foulkes estimate   =    -151.10849831 Ry
     estimated scf accuracy    <       0.00163792 Ry

     iteration #  3     ecut=    80.00 Ry     beta=0.30
     Davidson diagonalization with overlap
     ethr =  6.82E-06,  avg # of iterations =  1.1

     total cpu time spent up to now is      480.1 secs

     total energy              =    -151.10773378 Ry
     Harris-Foulkes estimate   =    -151.10825938 Ry
     estimated scf accuracy    <       0.00098765 Ry

     iteration #  4     ecut=    80.00 Ry     beta=0.30
     Davidson diagonalization with overlap
     ethr =  4.12E-06,  avg # of iterations =  2.1

     total cpu time spent up to now is      490.1 secs

     total energy              =    -151.10790381 Ry
     Harris-Foulkes estimate   =    -151.10790340 Ry
     estimated scf accuracy    <       0.00001893 Ry

     iteration #  5     ecut=    80.00 Ry     beta=0.30
     Davidson diagonalization with overlap
     ethr =  7.89E-08,  avg # of iterations =  1.9

     total cpu time spent up to now is      499.7 secs

     total energy              =    -151.10790588 Ry
     Harris-Foulkes estimate   =    -151.10790537 Ry
     estimated scf accuracy    <       0.00000987 Ry

     iteration #  6     ecut=    80.00 Ry     beta=0.30
     Davidson diagonalization with overlap
     ethr =  4.11E-08,  avg # of iterations =  1.1

     total cpu time spent up to now is      508.2 secs

     total energy              =    -151.10790638 Ry
     Harris-Foulkes estimate   =    -151.10790647 Ry
     estimated scf accuracy    <       0.00000016 Ry

     iteration #  7     ecut=    80.00 Ry     beta=0.30
     Davidson diagonalization with overlap
     ethr =  6.61E-10,  avg # of iterations =  2.6

     total cpu time spent up to now is      520.0 secs

     total energy              =    -151.10790644 Ry
     Harris-Foulkes estimate   =    -151.10790643 Ry
     estimated scf accuracy    <       0.00000002 Ry

     iteration #  8     ecut=    80.00 Ry     beta=0.30
     Davidson diagonalization with overlap
     ethr =  9.60E-11,  avg # of iterations =  1.9

     total cpu time spent up to now is      528.9 secs

     End of self-consistent calculation

          k = 0.0928 0.1608 0.0729 (  4433 PWs)   bands (ev):

   -26.8271 -26.1674  -9.2150  -8.0930  -8.0507  -7.6519  -7.4182  -7.2575
     5.3301   8.4198  12.2287  12.5686

          k = 0.0928 0.1608 0.2186 (  4435 PWs)   bands (ev):

   -26.7418 -26.2590  -9.0766  -8.0275  -7.9520  -7.8996  -7.5028  -7.3220
     5.8841   8.3684  11.9991  12.7514

          k = 0.0928 0.1608 0.3643 (  4455 PWs)   bands (ev):

   -26.5920 -26.4153  -8.7950  -8.4004  -7.8101  -7.7264  -7.6475  -7.4927
     6.8089   7.7895  12.2809  12.7472

          k = 0.0928 0.3752 0.0729 (  4441 PWs)   bands (ev):

   -26.6755 -26.2085  -8.9608  -8.4899  -8.2463  -8.0190  -7.4717  -7.4247
     6.8315   9.1066  10.5076  11.4287

          k = 0.0928 0.3752 0.2186 (  4446 PWs)   bands (ev):

   -26.6130 -26.2710  -9.1176  -8.5584  -8.1136  -7.9862  -7.5437  -7.3332
     7.2395   9.2530  10.7622  10.9741

          k = 0.0928 0.3752 0.3643 (  4452 PWs)   bands (ev):

   -26.5046 -26.3794  -9.1050  -8.8917  -7.9526  -7.7391  -7.6237  -7.3809
     7.9599   8.8024  10.9434  11.0811

          k = 0.0928 0.5896 0.0729 (  4457 PWs)   bands (ev):

   -26.5189 -26.2832  -8.9846  -8.4790  -8.3329  -8.2712  -7.7396  -7.4374
     8.3294   9.1369   9.5497  10.9008

          k = 0.0928 0.5896 0.2186 (  4454 PWs)   bands (ev):

   -26.4850 -26.3123  -9.2434  -8.8199  -8.2710  -7.9059  -7.5851  -7.4329
     8.5532   9.3910   9.9207  10.5620

          k = 0.0928 0.5896 0.3643 (  4444 PWs)   bands (ev):

   -26.4279 -26.3646  -9.3284  -9.1774  -8.0566  -7.8050  -7.5421  -7.3632
     8.9362   9.3538  10.3677  10.4533

          k = 0.0928-0.4824 0.0729 (  4446 PWs)   bands (ev):

   -26.5860 -26.2462  -8.9191  -8.5732  -8.2854  -8.1866  -7.6204  -7.4325
     7.6720   9.2921   9.8199  11.0853

          k = 0.0928-0.4824 0.2186 (  4453 PWs)   bands (ev):

   -26.5390 -26.2901  -9.1845  -8.7383  -8.2132  -7.9486  -7.5672  -7.3877
     7.9882   9.5452  10.1143  10.6536

          k = 0.0928-0.4824 0.3643 (  4446 PWs)   bands (ev):

   -26.4586 -26.3674  -9.2459  -9.0784  -8.0187  -7.7809  -7.5738  -7.3647
     8.5523   9.2333  10.5121  10.6225

          k = 0.0928-0.2680 0.0729 (  4445 PWs)   bands (ev):

   -26.7612 -26.1823  -9.0971  -8.2678  -8.1638  -7.8348  -7.4218  -7.3408
     5.9971   8.7650  11.4603  11.8507

          k = 0.0928-0.2680 0.2186 (  4435 PWs)   bands (ev):

   -26.6853 -26.2615  -9.0826  -8.2971  -8.0014  -7.9861  -7.5209  -7.3042
     6.4864   8.7907  11.4587  11.6967

          k = 0.0928-0.2680 0.3643 (  4447 PWs)   bands (ev):

   -26.5527 -26.3976  -8.9414  -8.6483  -7.8758  -7.6930  -7.6761  -7.4230
     7.3260   8.2560  11.5714  11.8377

          k = 0.0928-0.0536 0.0729 (  4430 PWs)   bands (ev):

   -26.8628 -26.1610  -9.2798  -8.0065  -7.9775  -7.5165  -7.4189  -7.2244
     4.9591   8.2079  12.4491  13.4950

          k = 0.0928-0.0536 0.2186 (  4422 PWs)   bands (ev):

   -26.7727 -26.2591  -9.0806  -7.9153  -7.9039  -7.7638  -7.4950  -7.3783
     5.5505   8.1225  12.3550  13.6431

          k = 0.0928-0.0536 0.3643 (  4450 PWs)   bands (ev):

   -26.6139 -26.4260  -8.7069  -8.2253  -7.7755  -7.7503  -7.6258  -7.5620
     6.5212   7.5259  12.8101  13.4969

          k = 0.2785 0.4824 0.0729 (  4434 PWs)   bands (ev):

   -26.5215 -26.2805  -8.7727  -8.7305  -8.2607  -8.2386  -7.7198  -7.5472
     8.2077   9.5257   9.5699  10.8543

          k = 0.2785 0.4824 0.2186 (  4442 PWs)   bands (ev):

   -26.4870 -26.3104  -9.0723  -8.8652  -8.4313  -7.8057  -7.6956  -7.4158
     8.4935   9.8983   9.9477  10.4105

          k = 0.2785 0.4824 0.3643 (  4447 PWs)   bands (ev):

   -26.4287 -26.3640  -9.2106  -9.1170  -8.2525  -7.9716  -7.4441  -7.3068
     9.0047   9.6562  10.4183  10.4395

          k = 0.2785 0.6969 0.0729 (  4440 PWs)   bands (ev):

   -26.4517 -26.3282  -8.8592  -8.6050  -8.3941  -8.1468  -7.8562  -7.5827
     8.6486   9.4001   9.5751  10.7076

          k = 0.2785 0.6969 0.2186 (  4450 PWs)   bands (ev):

   -26.4323 -26.3417  -9.0512  -8.8820  -8.5866  -7.7638  -7.6898  -7.4826
     8.8741   9.8032   9.9788  10.3826

          k = 0.2785 0.6969 0.3643 (  4441 PWs)   bands (ev):

   -26.4006 -26.3674  -9.2204  -9.1573  -8.3546  -8.0441  -7.3850  -7.3069
     9.2862   9.8036  10.3935  10.4446

          k = 0.2785-0.3752 0.0729 (  4442 PWs)   bands (ev):

   -26.6020 -26.2382  -8.8532  -8.6210  -8.3206  -8.1021  -7.5836  -7.4851
     7.5237   9.3502   9.9636  11.1181

          k = 0.2785-0.3752 0.2186 (  4438 PWs)   bands (ev):

   -26.5521 -26.2856  -9.1101  -8.7382  -8.2545  -7.9061  -7.6225  -7.3602
     7.8728   9.6146  10.2824  10.6329

          k = 0.2785-0.3752 0.3643 (  4444 PWs)   bands (ev):

   -26.4664 -26.3687  -9.1765  -9.0250  -8.0986  -7.8549  -7.5305  -7.3324
     8.4962   9.2569  10.6101  10.6745

          k = 0.2785-0.1608 0.0729 (  4444 PWs)   bands (ev):

   -26.7312 -26.1906  -9.0481  -8.3842  -8.1322  -7.9498  -7.4035  -7.3869
     6.2905   8.8890  11.0742  11.6973

          k = 0.2785-0.1608 0.2186 (  4445 PWs)   bands (ev):

   -26.6599 -26.2640  -9.1005  -8.3875  -8.0383  -8.0085  -7.5051  -7.3204
     6.7494   8.9541  11.2263  11.3595

          k = 0.2785-0.1608 0.3643 (  4452 PWs)   bands (ev):

   -26.5355 -26.3906  -9.0121  -8.7479  -7.8731  -7.6838  -7.6780  -7.4208
     7.5459   8.4460  11.3160  11.5251

          k = 0.4642 0.8041 0.0729 (  4450 PWs)   bands (ev):

   -26.4802 -26.3079  -8.9374  -8.5123  -8.3871  -8.2113  -7.8066  -7.5132
     8.5962   9.2066   9.5498  10.7845

          k = 0.4642 0.8041 0.2186 (  4439 PWs)   bands (ev):

   -26.4544 -26.3281  -9.1718  -8.8386  -8.4521  -7.7826  -7.6859  -7.4491
     8.8001   9.5352   9.9455  10.4754

          k = 0.4642 0.8041 0.3643 (  4442 PWs)   bands (ev):

   -26.4116 -26.3653  -9.2862  -9.1709  -8.2247  -7.9400  -7.4482  -7.3228
     9.1671   9.5845  10.3952  10.4019

          k = 0.4642-0.2680 0.0729 (  4457 PWs)   bands (ev):

   -26.5566 -26.2617  -8.9759  -8.5122  -8.2805  -8.2668  -7.6746  -7.4060
     7.9595   9.2064   9.6442  11.0111

          k = 0.4642-0.2680 0.2186 (  4465 PWs)   bands (ev):

   -26.5152 -26.2992  -9.2443  -8.7804  -8.1576  -7.9968  -7.5279  -7.4262
     8.2275   9.4403   9.9689  10.6270

          k = 0.4642-0.2680 0.3643 (  4445 PWs)   bands (ev):

   -26.4448 -26.3656  -9.3125  -9.1439  -7.9643  -7.7340  -7.6055  -7.3914
     8.6980   9.2435  10.4114  10.5354

!    total energy              =    -151.10790644 Ry
     Harris-Foulkes estimate   =    -151.10790644 Ry
     estimated scf accuracy    <          5.2E-09 Ry

     The total energy is the sum of the following terms:

     one-electron contribution =     -23.24133870 Ry
     hartree contribution      =      22.83576703 Ry
     xc contribution           =     -24.39078113 Ry
     ewald contribution        =    -126.31155363 Ry

     convergence has been achieved in   8 iterations

     Forces acting on atoms (Ry/au):

     atom    1 type  2   force =     0.00000000    0.00000000    0.00000000
     atom    2 type  2   force =     0.00000000   -0.00000000   -0.00000000
     atom    3 type  1   force =    -0.00000000   -0.00000000    0.00000000
     atom    4 type  1   force =     0.00000000    0.00000000   -0.00000000
     atom    5 type  1   force =     0.00000000    0.00000000   -0.00000000
     atom    6 type  1   force =    -0.00000000    0.00000000    0.00000000

     Total force =     0.000000     Total SCF correction =     0.000000


     entering subroutine stress ...

          total   stress  (Ry/bohr**3)                   (kbar)     P=  946.68
   0.00655046  -0.00000000  -0.00000000        963.61     -0.00     -0.00
  -0.00000000   0.00655046   0.00000000         -0.00    963.61      0.00
  -0.00000000   0.00000000   0.00620523         -0.00      0.00    912.82


     number of scf cycles    =   3
     number of bfgs steps    =   2

     enthalpy old            =    -149.3371865999 Ry
     enthalpy new            =    -149.3492946119 Ry

     CASE: enthalpy_new < enthalpy_old

     new trust radius        =       0.0380019076 bohr
     new conv_thr            =       0.0000000100 Ry

     new unit-cell volume =    254.78477 a.u.^3 (    37.75521 Ang^3 )

CELL_PARAMETERS (alat=  6.86950000)
   0.896045423   0.000000000  -0.000000000
  -0.448022712   0.775998100   0.000000000
   0.000000000  -0.000000000   1.130335587

ATOMIC_POSITIONS (crystal)
Ca       0.333333333   0.666666667   0.250000000
Ca       0.666666667   0.333333333   0.750000000
H        0.333333333   0.666666667   0.750000000
H        0.666666667   0.333333333   0.250000000
H        0.000000000   0.000000000  -0.000000000
H        0.000000000   0.000000000   0.500000000



     Writing output data file CaH2_ambient.save
     NEW-OLD atomic charge density approx. for the potential
     NEW k-points:
        k(    1) = (   0.0930012   0.1610829   0.0737244), wk =   0.0370370
        k(    2) = (   0.0930012   0.1610829   0.2211733), wk =   0.0370370
        k(    3) = (   0.0930012   0.1610829   0.3686221), wk =   0.0370370
        k(    4) = (   0.0930012   0.3758600   0.0737244), wk =   0.0740741
        k(    5) = (   0.0930012   0.3758600   0.2211733), wk =   0.0740741
        k(    6) = (   0.0930012   0.3758600   0.3686221), wk =   0.0740741
        k(    7) = (   0.0930012   0.5906372   0.0737244), wk =   0.0740741
        k(    8) = (   0.0930012   0.5906372   0.2211733), wk =   0.0740741
        k(    9) = (   0.0930012   0.5906372   0.3686221), wk =   0.0740741
        k(   10) = (   0.0930012  -0.4832486   0.0737244), wk =   0.0740741
        k(   11) = (   0.0930012  -0.4832486   0.2211733), wk =   0.0740741
        k(   12) = (   0.0930012  -0.4832486   0.3686221), wk =   0.0740741
        k(   13) = (   0.0930012  -0.2684714   0.0737244), wk =   0.0740741
        k(   14) = (   0.0930012  -0.2684714   0.2211733), wk =   0.0740741
        k(   15) = (   0.0930012  -0.2684714   0.3686221), wk =   0.0740741
        k(   16) = (   0.0930012  -0.0536943   0.0737244), wk =   0.0370370
        k(   17) = (   0.0930012  -0.0536943   0.2211733), wk =   0.0370370
        k(   18) = (   0.0930012  -0.0536943   0.3686221), wk =   0.0370370
        k(   19) = (   0.2790037   0.4832486   0.0737244), wk =   0.0370370
        k(   20) = (   0.2790037   0.4832486   0.2211733), wk =   0.0370370
        k(   21) = (   0.2790037   0.4832486   0.3686221), wk =   0.0370370
        k(   22) = (   0.2790037   0.6980258   0.0737244), wk =   0.0740741
        k(   23) = (   0.2790037   0.6980258   0.2211733), wk =   0.0740741
        k(   24) = (   0.2790037   0.6980258   0.3686221), wk =   0.0740741
        k(   25) = (   0.2790037  -0.3758600   0.0737244), wk =   0.0740741
        k(   26) = (   0.2790037  -0.3758600   0.2211733), wk =   0.0740741
        k(   27) = (   0.2790037  -0.3758600   0.3686221), wk =   0.0740741
        k(   28) = (   0.2790037  -0.1610829   0.0737244), wk =   0.0370370
        k(   29) = (   0.2790037  -0.1610829   0.2211733), wk =   0.0370370
        k(   30) = (   0.2790037  -0.1610829   0.3686221), wk =   0.0370370
        k(   31) = (   0.4650062   0.8054143   0.0737244), wk =   0.0370370
        k(   32) = (   0.4650062   0.8054143   0.2211733), wk =   0.0370370
        k(   33) = (   0.4650062   0.8054143   0.3686221), wk =   0.0370370
        k(   34) = (   0.4650062  -0.2684714   0.0737244), wk =   0.0370370
        k(   35) = (   0.4650062  -0.2684714   0.2211733), wk =   0.0370370
        k(   36) = (   0.4650062  -0.2684714   0.3686221), wk =   0.0370370
     extrapolated charge   23.69261, renormalised to   24.00000

     total cpu time spent up to now is      614.5 secs

     per-process dynamical memory:    23.0 Mb

     Self-consistent Calculation

     iteration #  1     ecut=    80.00 Ry     beta=0.30
     Davidson diagonalization with overlap
     ethr =  1.00E-06,  avg # of iterations =  4.0

     total cpu time spent up to now is      632.0 secs

     total energy              =    -151.07979445 Ry
     Harris-Foulkes estimate   =    -151.25399476 Ry
     estimated scf accuracy    <       0.00455889 Ry

     iteration #  2     ecut=    80.00 Ry     beta=0.30
     Davidson diagonalization with overlap
     ethr =  1.90E-05,  avg # of iterations =  2.0

     total cpu time spent up to now is      644.0 secs

     total energy              =    -151.08250795 Ry
     Harris-Foulkes estimate   =    -151.08255454 Ry
     estimated scf accuracy    <       0.00020288 Ry

     iteration #  3     ecut=    80.00 Ry     beta=0.30
     Davidson diagonalization with overlap
     ethr =  8.45E-07,  avg # of iterations =  1.1

     total cpu time spent up to now is      652.5 secs

     total energy              =    -151.08243401 Ry
     Harris-Foulkes estimate   =    -151.08251237 Ry
     estimated scf accuracy    <       0.00011558 Ry

     iteration #  4     ecut=    80.00 Ry     beta=0.30
     Davidson diagonalization with overlap
     ethr =  4.82E-07,  avg # of iterations =  2.1

     total cpu time spent up to now is      664.3 secs

     total energy              =    -151.08246202 Ry
     Harris-Foulkes estimate   =    -151.08246233 Ry
     estimated scf accuracy    <       0.00000332 Ry

     iteration #  5     ecut=    80.00 Ry     beta=0.30
     Davidson diagonalization with overlap
     ethr =  1.39E-08,  avg # of iterations =  1.6

     total cpu time spent up to now is      673.1 secs

     total energy              =    -151.08246224 Ry
     Harris-Foulkes estimate   =    -151.08246216 Ry
     estimated scf accuracy    <       0.00000111 Ry

     iteration #  6     ecut=    80.00 Ry     beta=0.30
     Davidson diagonalization with overlap
     ethr =  4.63E-09,  avg # of iterations =  1.5

     total cpu time spent up to now is      681.6 secs

     End of self-consistent calculation

          k = 0.0930 0.1611 0.0737 (  4433 PWs)   bands (ev):

   -26.6231 -25.9154  -9.0292  -7.8837  -7.8437  -7.4109  -7.1675  -6.9936
     5.5376   8.5802  12.5688  12.7345

          k = 0.0930 0.1611 0.2212 (  4435 PWs)   bands (ev):

   -26.5318 -26.0139  -8.8914  -7.8115  -7.7316  -7.6789  -7.2581  -7.0613
     6.1084   8.5806  12.2737  12.9396

          k = 0.0930 0.1611 0.3686 (  4455 PWs)   bands (ev):

   -26.3711 -26.1816  -8.6049  -8.1966  -7.5873  -7.4901  -7.4131  -7.2418
     7.0549   8.0424  12.5105  12.9637

          k = 0.0930 0.3759 0.0737 (  4441 PWs)   bands (ev):

   -26.4637 -25.9626  -8.7709  -8.2863  -8.0392  -7.7920  -7.2167  -7.1698
     7.0472   9.2718  10.6766  11.7316

          k = 0.0930 0.3759 0.2212 (  4446 PWs)   bands (ev):

   -26.3965 -26.0295  -8.9425  -8.3575  -7.9043  -7.7530  -7.2968  -7.0672
     7.4643   9.4676  10.9583  11.2181

          k = 0.0930 0.3759 0.3686 (  4452 PWs)   bands (ev):

   -26.2801 -26.1457  -8.9331  -8.7097  -7.7337  -7.5052  -7.3709  -7.1157
     8.1992   9.0540  11.1603  11.2995

          k = 0.0930 0.5906 0.0737 (  4457 PWs)   bands (ev):

   -26.2980 -26.0450  -8.7981  -8.2722  -8.1115  -8.0643  -7.4938  -7.1802
     8.5099   9.3297   9.7459  11.1830

          k = 0.0930 0.5906 0.2212 (  4454 PWs)   bands (ev):

   -26.2613 -26.0759  -9.0728  -8.6279  -8.0675  -7.6661  -7.3361  -7.1684
     8.7425   9.6035  10.1384  10.8292

          k = 0.0930 0.5906 0.3686 (  4444 PWs)   bands (ev):

   -26.1997 -26.1318  -9.1643  -9.0059  -7.8406  -7.5723  -7.2820  -7.0933
     9.1382   9.5691  10.6238  10.7202

          k = 0.0930-0.4832 0.0737 (  4446 PWs)   bands (ev):

   -26.3691 -26.0045  -8.7311  -8.3680  -8.0753  -7.9666  -7.3709  -7.1762
     7.8811   9.4560  10.0083  11.3745

          k = 0.0930-0.4832 0.2212 (  4453 PWs)   bands (ev):

   -26.3185 -26.0514  -9.0126  -8.5433  -8.0074  -7.7109  -7.3193  -7.1222
     8.2029   9.7501  10.3222  10.9085

          k = 0.0930-0.4832 0.3686 (  4446 PWs)   bands (ev):

   -26.2320 -26.1341  -9.0793  -8.9033  -7.8017  -7.5477  -7.3160  -7.0963
     8.7770   9.4692  10.7454  10.8619

          k = 0.0930-0.2685 0.0737 (  4445 PWs)   bands (ev):

   -26.5538 -25.9328  -8.9089  -8.0613  -7.9577  -7.6007  -7.1690  -7.0804
     6.2101   8.9279  11.6242  12.1722

          k = 0.0930-0.2685 0.2212 (  4435 PWs)   bands (ev):

   -26.4725 -26.0178  -8.9024  -8.0879  -7.7885  -7.7588  -7.2752  -7.0396
     6.7125   9.0054  11.7158  11.8829

          k = 0.0930-0.2685 0.3686 (  4447 PWs)   bands (ev):

   -26.3302 -26.1638  -8.7612  -8.4564  -7.6548  -7.4565  -7.4330  -7.1636
     7.5706   8.5100  11.7894  12.0490

          k = 0.0930-0.0537 0.0737 (  4430 PWs)   bands (ev):

   -26.6605 -25.9078  -9.0954  -7.7967  -7.7682  -7.2708  -7.1697  -6.9591
     5.1628   8.3669  12.8007  13.6653

          k = 0.0930-0.0537 0.2212 (  4422 PWs)   bands (ev):

   -26.5640 -26.0133  -8.8924  -7.6982  -7.6893  -7.5303  -7.2512  -7.1230
     5.7732   8.3329  12.6445  13.8387

          k = 0.0930-0.0537 0.3686 (  4450 PWs)   bands (ev):

   -26.3939 -26.1924  -8.5090  -8.0110  -7.5518  -7.5213  -7.3914  -7.3196
     6.7675   7.7778  13.0547  13.7258

          k = 0.2790 0.4832 0.0737 (  4434 PWs)   bands (ev):

   -26.3008 -26.0421  -8.5861  -8.5345  -8.0382  -8.0223  -7.4748  -7.2900
     8.4162   9.7043   9.7496  11.1292

          k = 0.2790 0.4832 0.2212 (  4442 PWs)   bands (ev):

   -26.2634 -26.0739  -8.8969  -8.6781  -8.2337  -7.5574  -7.4499  -7.1513
     8.7067  10.1099  10.1536  10.6619

          k = 0.2790 0.4832 0.3686 (  4447 PWs)   bands (ev):

   -26.2006 -26.1311  -9.0443  -8.9454  -8.0427  -7.7427  -7.1791  -7.0352
     9.2280   9.8981  10.6571  10.6745

          k = 0.2790 0.6980 0.0737 (  4440 PWs)   bands (ev):

   -26.2265 -26.0939  -8.6760  -8.4057  -8.1819  -7.9195  -7.6161  -7.3248
     8.8370   9.5986   9.7621  10.9746

          k = 0.2790 0.6980 0.2212 (  4450 PWs)   bands (ev):

   -26.2053 -26.1081  -8.8745  -8.6969  -8.3944  -7.5167  -7.4381  -7.2202
     9.0697  10.0252  10.1923  10.6368

          k = 0.2790 0.6980 0.3686 (  4441 PWs)   bands (ev):

   -26.1710 -26.1354  -9.0548  -8.9885  -8.1475  -7.8167  -7.1164  -7.0343
     9.4963  10.0326  10.6497  10.6952

          k = 0.2790-0.3759 0.0737 (  4442 PWs)   bands (ev):

   -26.3860 -25.9957  -8.6616  -8.4260  -8.1050  -7.8807  -7.3331  -7.2292
     7.7392   9.5204  10.1357  11.4062

          k = 0.2790-0.3759 0.2212 (  4438 PWs)   bands (ev):

   -26.3323 -26.0463  -8.9358  -8.5452  -8.0504  -7.6651  -7.3761  -7.0944
     8.0950   9.8290  10.4782  10.8797

          k = 0.2790-0.3759 0.3686 (  4444 PWs)   bands (ev):

   -26.2401 -26.1353  -9.0080  -8.8488  -7.8841  -7.6234  -7.2712  -7.0635
     8.7302   9.5065  10.8318  10.9000

          k = 0.2790-0.1611 0.0737 (  4444 PWs)   bands (ev):

   -26.5223 -25.9423  -8.8593  -8.1781  -7.9290  -7.7158  -7.1499  -7.1283
     6.5047   9.0523  11.2407  12.0122

          k = 0.2790-0.1611 0.2212 (  4445 PWs)   bands (ev):

   -26.4458 -26.0211  -8.9228  -8.1795  -7.8289  -7.7787  -7.2587  -7.0550
     6.9750   9.1686  11.4554  11.5721

          k = 0.2790-0.1611 0.3686 (  4452 PWs)   bands (ev):

   -26.3123 -26.1568  -8.8356  -8.5600  -7.6524  -7.4437  -7.4353  -7.1591
     7.7886   8.6990  11.5330  11.7387

          k = 0.4650 0.8054 0.0737 (  4450 PWs)   bands (ev):

   -26.2568 -26.0719  -8.7515  -8.3151  -8.1694  -7.9909  -7.5634  -7.2559
     8.7718   9.4158   9.7375  11.0579

          k = 0.4650 0.8054 0.2212 (  4439 PWs)   bands (ev):

   -26.2288 -26.0933  -8.9988  -8.6495  -8.2553  -7.5360  -7.4382  -7.1854
     8.9866   9.7591  10.1596  10.7372

          k = 0.4650 0.8054 0.3686 (  4442 PWs)   bands (ev):

   -26.1826 -26.1329  -9.1215  -9.0009  -8.0138  -7.7104  -7.1833  -7.0512
     9.3694   9.8043  10.6496  10.6693

          k = 0.4650-0.2685 0.0737 (  4457 PWs)   bands (ev):

   -26.3379 -26.0215  -8.7893  -8.3005  -8.0687  -8.0546  -7.4268  -7.1490
     8.1561   9.3741   9.8455  11.2993

          k = 0.4650-0.2685 0.2212 (  4465 PWs)   bands (ev):

   -26.2933 -26.0614  -9.0740  -8.5861  -7.9524  -7.7588  -7.2797  -7.1603
     8.4301   9.6409  10.1868  10.8915

          k = 0.4650-0.2685 0.3686 (  4445 PWs)   bands (ev):

   -26.2175 -26.1325  -9.1477  -8.9707  -7.7462  -7.5002  -7.3476  -7.1225
     8.9098   9.4642  10.6595  10.7915

!    total energy              =    -151.08246228 Ry
     Harris-Foulkes estimate   =    -151.08246228 Ry
     estimated scf accuracy    <          8.0E-09 Ry

     The total energy is the sum of the following terms:

     one-electron contribution =     -22.32848986 Ry
     hartree contribution      =      22.59857272 Ry
     xc contribution           =     -24.42330849 Ry
     ewald contribution        =    -126.92923665 Ry

     convergence has been achieved in   6 iterations

     Forces acting on atoms (Ry/au):

     atom    1 type  2   force =     0.00000000    0.00000000    0.00000000
     atom    2 type  2   force =    -0.00000000   -0.00000000    0.00000000
     atom    3 type  1   force =    -0.00000000   -0.00000000    0.00000000
     atom    4 type  1   force =    -0.00000000    0.00000000   -0.00000000
     atom    5 type  1   force =     0.00000000   -0.00000000   -0.00000000
     atom    6 type  1   force =     0.00000000   -0.00000000   -0.00000000

     Total force =     0.000000     Total SCF correction =     0.000000


     entering subroutine stress ...

          total   stress  (Ry/bohr**3)                   (kbar)     P=  994.45
   0.00678950   0.00000000  -0.00000000        998.77      0.00     -0.00
   0.00000000   0.00678950   0.00000000          0.00    998.77      0.00
  -0.00000000   0.00000000   0.00670147         -0.00      0.00    985.82


     number of scf cycles    =   4
     number of bfgs steps    =   3

     enthalpy old            =    -149.3492946119 Ry
     enthalpy new            =    -149.3504703107 Ry

     CASE: enthalpy_new < enthalpy_old

     new trust radius        =       0.0084751858 bohr
     new conv_thr            =       0.0000000100 Ry

     new unit-cell volume =    254.25749 a.u.^3 (    37.67707 Ang^3 )

CELL_PARAMETERS (alat=  6.86950000)
   0.896308305   0.000000000  -0.000000000
  -0.448154153   0.776225762   0.000000000
   0.000000000  -0.000000000   1.127334767

ATOMIC_POSITIONS (crystal)
Ca       0.333333333   0.666666667   0.250000000
Ca       0.666666667   0.333333333   0.750000000
H        0.333333333   0.666666667   0.750000000
H        0.666666667   0.333333333   0.250000000
H        0.000000000  -0.000000000  -0.000000000
H       -0.000000000  -0.000000000   0.500000000



     Writing output data file CaH2_ambient.save
     NEW-OLD atomic charge density approx. for the potential
     NEW k-points:
        k(    1) = (   0.0929740   0.1610356   0.0739207), wk =   0.0370370
        k(    2) = (   0.0929740   0.1610356   0.2217620), wk =   0.0370370
        k(    3) = (   0.0929740   0.1610356   0.3696033), wk =   0.0370370
        k(    4) = (   0.0929740   0.3757498   0.0739207), wk =   0.0740741
        k(    5) = (   0.0929740   0.3757498   0.2217620), wk =   0.0740741
        k(    6) = (   0.0929740   0.3757498   0.3696033), wk =   0.0740741
        k(    7) = (   0.0929740   0.5904640   0.0739207), wk =   0.0740741
        k(    8) = (   0.0929740   0.5904640   0.2217620), wk =   0.0740741
        k(    9) = (   0.0929740   0.5904640   0.3696033), wk =   0.0740741
        k(   10) = (   0.0929740  -0.4831069   0.0739207), wk =   0.0740741
        k(   11) = (   0.0929740  -0.4831069   0.2217620), wk =   0.0740741
        k(   12) = (   0.0929740  -0.4831069   0.3696033), wk =   0.0740741
        k(   13) = (   0.0929740  -0.2683927   0.0739207), wk =   0.0740741
        k(   14) = (   0.0929740  -0.2683927   0.2217620), wk =   0.0740741
        k(   15) = (   0.0929740  -0.2683927   0.3696033), wk =   0.0740741
        k(   16) = (   0.0929740  -0.0536785   0.0739207), wk =   0.0370370
        k(   17) = (   0.0929740  -0.0536785   0.2217620), wk =   0.0370370
        k(   18) = (   0.0929740  -0.0536785   0.3696033), wk =   0.0370370
        k(   19) = (   0.2789219   0.4831069   0.0739207), wk =   0.0370370
        k(   20) = (   0.2789219   0.4831069   0.2217620), wk =   0.0370370
        k(   21) = (   0.2789219   0.4831069   0.3696033), wk =   0.0370370
        k(   22) = (   0.2789219   0.6978210   0.0739207), wk =   0.0740741
        k(   23) = (   0.2789219   0.6978210   0.2217620), wk =   0.0740741
        k(   24) = (   0.2789219   0.6978210   0.3696033), wk =   0.0740741
        k(   25) = (   0.2789219  -0.3757498   0.0739207), wk =   0.0740741
        k(   26) = (   0.2789219  -0.3757498   0.2217620), wk =   0.0740741
        k(   27) = (   0.2789219  -0.3757498   0.3696033), wk =   0.0740741
        k(   28) = (   0.2789219  -0.1610356   0.0739207), wk =   0.0370370
        k(   29) = (   0.2789219  -0.1610356   0.2217620), wk =   0.0370370
        k(   30) = (   0.2789219  -0.1610356   0.3696033), wk =   0.0370370
        k(   31) = (   0.4648698   0.8051781   0.0739207), wk =   0.0370370
        k(   32) = (   0.4648698   0.8051781   0.2217620), wk =   0.0370370
        k(   33) = (   0.4648698   0.8051781   0.3696033), wk =   0.0370370
        k(   34) = (   0.4648698  -0.2683927   0.0739207), wk =   0.0370370
        k(   35) = (   0.4648698  -0.2683927   0.2217620), wk =   0.0370370
        k(   36) = (   0.4648698  -0.2683927   0.3696033), wk =   0.0370370
     extrapolated charge   23.95852, renormalised to   24.00000

     total cpu time spent up to now is      767.2 secs

     per-process dynamical memory:    23.0 Mb

     Self-consistent Calculation

     iteration #  1     ecut=    80.00 Ry     beta=0.30
     Davidson diagonalization with overlap
     ethr =  1.00E-06,  avg # of iterations =  2.9

     total cpu time spent up to now is      779.6 secs

     total energy              =    -151.07886137 Ry
     Harris-Foulkes estimate   =    -151.10203438 Ry
     estimated scf accuracy    <       0.00007935 Ry

     iteration #  2     ecut=    80.00 Ry     beta=0.30
     Davidson diagonalization with overlap
     ethr =  3.31E-07,  avg # of iterations =  2.0

     total cpu time spent up to now is      791.7 secs

     total energy              =    -151.07891027 Ry
     Harris-Foulkes estimate   =    -151.07891105 Ry
     estimated scf accuracy    <       0.00000374 Ry

     iteration #  3     ecut=    80.00 Ry     beta=0.30
     Davidson diagonalization with overlap
     ethr =  1.56E-08,  avg # of iterations =  1.1

     total cpu time spent up to now is      800.3 secs

     total energy              =    -151.07890903 Ry
     Harris-Foulkes estimate   =    -151.07891035 Ry
     estimated scf accuracy    <       0.00000214 Ry

     iteration #  4     ecut=    80.00 Ry     beta=0.30
     Davidson diagonalization with overlap
     ethr =  8.91E-09,  avg # of iterations =  2.1

     total cpu time spent up to now is      811.6 secs

     total energy              =    -151.07890950 Ry
     Harris-Foulkes estimate   =    -151.07890950 Ry
     estimated scf accuracy    <       0.00000005 Ry

     iteration #  5     ecut=    80.00 Ry     beta=0.30
     Davidson diagonalization with overlap
     ethr =  2.19E-10,  avg # of iterations =  2.0

     total cpu time spent up to now is      820.7 secs

     total energy              =    -151.07890950 Ry
     Harris-Foulkes estimate   =    -151.07890950 Ry
     estimated scf accuracy    <       0.00000002 Ry

     iteration #  6     ecut=    80.00 Ry     beta=0.30
     Davidson diagonalization with overlap
     ethr =  9.63E-11,  avg # of iterations =  1.0

     total cpu time spent up to now is      829.0 secs

     End of self-consistent calculation

          k = 0.0930 0.1610 0.0739 (  4433 PWs)   bands (ev):

   -26.5979 -25.8815  -9.0052  -7.8590  -7.8200  -7.3793  -7.1348  -6.9586
     5.5653   8.5984  12.6287  12.7489

          k = 0.0930 0.1610 0.2218 (  4435 PWs)   bands (ev):

   -26.5054 -25.9811  -8.8683  -7.7853  -7.7046  -7.6521  -7.2267  -7.0266
     6.1399   8.6102  12.3187  12.9600

          k = 0.0930 0.1610 0.3696 (  4455 PWs)   bands (ev):

   -26.3428 -26.1509  -8.5820  -8.1719  -7.5604  -7.4599  -7.3838  -7.2088
     7.0914   8.0808  12.5445  12.9927

          k = 0.0930 0.3757 0.0739 (  4441 PWs)   bands (ev):

   -26.4374 -25.9302  -8.7471  -8.2603  -8.0142  -7.7622  -7.1828  -7.1358
     7.0739   9.2888  10.6939  11.7860

          k = 0.0930 0.3757 0.2218 (  4446 PWs)   bands (ev):

   -26.3694 -25.9979  -8.9218  -8.3320  -7.8796  -7.7219  -7.2644  -7.0309
     7.4937   9.4956  10.9824  11.2576

          k = 0.0930 0.3757 0.3696 (  4452 PWs)   bands (ev):

   -26.2515 -26.1154  -8.9132  -8.6880  -7.7070  -7.4753  -7.3365  -7.0792
     8.2327   9.0909  11.1917  11.3298

          k = 0.0930 0.5905 0.0739 (  4457 PWs)   bands (ev):

   -26.2704 -26.0143  -8.7740  -8.2463  -8.0816  -8.0389  -7.4608  -7.1454
     8.5303   9.3519   9.7660  11.2344

          k = 0.0930 0.5905 0.2218 (  4454 PWs)   bands (ev):

   -26.2332 -26.0455  -9.0521  -8.6036  -8.0434  -7.6336  -7.3027  -7.1317
     8.7658   9.6327  10.1641  10.8719

          k = 0.0930 0.5905 0.3696 (  4444 PWs)   bands (ev):

   -26.1708 -26.1020  -9.1452  -8.9855  -7.8140  -7.5423  -7.2459  -7.0555
     9.1662   9.6023  10.6583  10.7573

          k = 0.0930-0.4831 0.0739 (  4446 PWs)   bands (ev):

   -26.3421 -25.9730  -8.7075  -8.3415  -8.0494  -7.9375  -7.3377  -7.1416
     7.9060   9.4730  10.0282  11.4269

          k = 0.0930-0.4831 0.2218 (  4453 PWs)   bands (ev):

   -26.2908 -26.0204  -8.9922  -8.5186  -7.9830  -7.6787  -7.2863  -7.0856
     8.2301   9.7770  10.3476  10.9497

          k = 0.0930-0.4831 0.3696 (  4446 PWs)   bands (ev):

   -26.2032 -26.1041  -9.0600  -8.8825  -7.7750  -7.5177  -7.2804  -7.0589
     8.8079   9.5043  10.7776  10.8958

          k = 0.0930-0.2684 0.0739 (  4445 PWs)   bands (ev):

   -26.5282 -25.8995  -8.8849  -8.0361  -7.9334  -7.5701  -7.1356  -7.0459
     6.2375   8.9454  11.6398  12.2294

          k = 0.0930-0.2684 0.2218 (  4435 PWs)   bands (ev):

   -26.4458 -25.9855  -8.8806  -8.0618  -7.7634  -7.7295  -7.2432  -7.0038
     6.7432   9.0344  11.7576  11.9045

          k = 0.0930-0.2684 0.3696 (  4447 PWs)   bands (ev):

   -26.3018 -26.1333  -8.7402  -8.4335  -7.6280  -7.4266  -7.4007  -7.1286
     7.6059   8.5478  11.8214  12.0777

          k = 0.0930-0.0537 0.0739 (  4430 PWs)   bands (ev):

   -26.6355 -25.8735  -9.0714  -7.7725  -7.7444  -7.2388  -7.1374  -6.9239
     5.1906   8.3856  12.8625  13.6788

          k = 0.0930-0.0537 0.2218 (  4422 PWs)   bands (ev):

   -26.5378 -25.9803  -8.8685  -7.6725  -7.6645  -7.5006  -7.2200  -7.0895
     5.8051   8.3629  12.6920  13.8592

          k = 0.0930-0.0537 0.3696 (  4450 PWs)   bands (ev):

   -26.3656 -26.1616  -8.4845  -7.9844  -7.5249  -7.4931  -7.3622  -7.2886
     6.8047   7.8166  13.0916  13.7567

          k = 0.2789 0.4831 0.0739 (  4434 PWs)   bands (ev):

   -26.2732 -26.0113  -8.5632  -8.5099  -8.0085  -7.9944  -7.4422  -7.2543
     8.4400   9.7222   9.7688  11.1793

          k = 0.2789 0.4831 0.2218 (  4442 PWs)   bands (ev):

   -26.2353 -26.0434  -8.8763  -8.6547  -8.2101  -7.5231  -7.4167  -7.1148
     8.7325  10.1352  10.1788  10.7047

          k = 0.2789 0.4831 0.3696 (  4447 PWs)   bands (ev):

   -26.1716 -26.1013  -9.0254  -8.9254  -8.0164  -7.7125  -7.1422  -6.9973
     9.2578   9.9340  10.6901  10.7072

          k = 0.2789 0.6978 0.0739 (  4440 PWs)   bands (ev):

   -26.1982 -26.0640  -8.6536  -8.3807  -8.1543  -7.8893  -7.5840  -7.2886
     8.8575   9.6201   9.7811  11.0235

          k = 0.2789 0.6978 0.2218 (  4450 PWs)   bands (ev):

   -26.1766 -26.0783  -8.8535  -8.6742  -8.3713  -7.4825  -7.4036  -7.1839
     9.0927  10.0529  10.2177  10.6796

          k = 0.2789 0.6978 0.3696 (  4441 PWs)   bands (ev):

   -26.1418 -26.1058  -9.0360  -8.9692  -8.1212  -7.7865  -7.0788  -6.9962
     9.5243  10.0674  10.6846  10.7292

          k = 0.2789-0.3757 0.0739 (  4442 PWs)   bands (ev):

   -26.3592 -25.9640  -8.6376  -8.4018  -8.0769  -7.8521  -7.2999  -7.1943
     7.7649   9.5374  10.1536  11.4584

          k = 0.2789-0.3757 0.2218 (  4438 PWs)   bands (ev):

   -26.3047 -26.0152  -8.9153  -8.5210  -8.0262  -7.6323  -7.3432  -7.0579
     8.1231   9.8559  10.5021  10.9207

          k = 0.2789-0.3757 0.3696 (  4444 PWs)   bands (ev):

   -26.2114 -26.1053  -8.9888  -8.8280  -7.8576  -7.5933  -7.2355  -7.0262
     8.7621   9.5430  10.8634  10.9315

          k = 0.2789-0.1610 0.0739 (  4444 PWs)   bands (ev):

   -26.4965 -25.9093  -8.8353  -8.1521  -7.9061  -7.6844  -7.1163  -7.0939
     6.5319   9.0695  11.2571  12.0684

          k = 0.2789-0.1610 0.2218 (  4445 PWs)   bands (ev):

   -26.4190 -25.9890  -8.9016  -8.1531  -7.8046  -7.7484  -7.2266  -7.0189
     7.0053   9.1973  11.4863  11.6047

          k = 0.2789-0.1610 0.3696 (  4452 PWs)   bands (ev):

   -26.2838 -26.1264  -8.8151  -8.5375  -7.6257  -7.4143  -7.4018  -7.1234
     7.8232   8.7365  11.5646  11.7679

          k = 0.4649 0.8052 0.0739 (  4450 PWs)   bands (ev):

   -26.2288 -26.0416  -8.7278  -8.2915  -8.1401  -7.9623  -7.5307  -7.2205
     8.7910   9.4394   9.7566  11.1079

          k = 0.4649 0.8052 0.2218 (  4439 PWs)   bands (ev):

   -26.2004 -26.0632  -8.9779  -8.6260  -8.2318  -7.5024  -7.4044  -7.1489
     9.0088   9.7889  10.1850  10.7797

          k = 0.4649 0.8052 0.3696 (  4442 PWs)   bands (ev):

   -26.1535 -26.1033  -9.1026  -8.9810  -7.9874  -7.6802  -7.1465  -7.0132
     9.3968   9.8379  10.6840  10.7060

          k = 0.4649-0.2684 0.0739 (  4457 PWs)   bands (ev):

   -26.3107 -25.9903  -8.7653  -8.2725  -8.0463  -8.0235  -7.3937  -7.1145
     8.1792   9.3927   9.8666  11.3516

          k = 0.4649-0.2684 0.2218 (  4465 PWs)   bands (ev):

   -26.2655 -26.0307  -9.0535  -8.5614  -7.9285  -7.7263  -7.2469  -7.1233
     8.4556   9.6685  10.2128  10.9338

          k = 0.4649-0.2684 0.3696 (  4445 PWs)   bands (ev):

   -26.1886 -26.1026  -9.1285  -8.9500  -7.7196  -7.4704  -7.3117  -7.0849
     8.9393   9.4978  10.6930  10.8274

!    total energy              =    -151.07890950 Ry
     Harris-Foulkes estimate   =    -151.07890950 Ry
     estimated scf accuracy    <          9.5E-11 Ry

     The total energy is the sum of the following terms:

     one-electron contribution =     -22.21058063 Ry
     hartree contribution      =      22.56803985 Ry
     xc contribution           =     -24.42741113 Ry
     ewald contribution        =    -127.00895759 Ry

     convergence has been achieved in   6 iterations

     Forces acting on atoms (Ry/au):

     atom    1 type  2   force =     0.00000000    0.00000000   -0.00000000
     atom    2 type  2   force =    -0.00000000   -0.00000000   -0.00000000
     atom    3 type  1   force =     0.00000000    0.00000000   -0.00000000
     atom    4 type  1   force =    -0.00000000   -0.00000000    0.00000000
     atom    5 type  1   force =     0.00000000   -0.00000000    0.00000000
     atom    6 type  1   force =     0.00000000    0.00000000   -0.00000000

     Total force =     0.000000     Total SCF correction =     0.000000


     entering subroutine stress ...

          total   stress  (Ry/bohr**3)                   (kbar)     P= 1000.46
   0.00680115  -0.00000000  -0.00000000       1000.48     -0.00     -0.00
  -0.00000000   0.00680115   0.00000000         -0.00   1000.48      0.00
   0.00000000   0.00000000   0.00680077          0.00      0.00   1000.43


     bfgs converged in   5 scf cycles and   4 bfgs steps
     (criteria: energy < 0.10E-03, force < 0.10E-02, cell < 0.50E+00)

     End of BFGS Geometry Optimization

     Final enthalpy =    -149.3505019184 Ry
Begin final coordinates
     new unit-cell volume =    254.25749 a.u.^3 (    37.67707 Ang^3 )

CELL_PARAMETERS (alat=  6.86950000)
   0.896308305   0.000000000  -0.000000000
  -0.448154153   0.776225762   0.000000000
   0.000000000  -0.000000000   1.127334767

ATOMIC_POSITIONS (crystal)
Ca       0.333333333   0.666666667   0.250000000
Ca       0.666666667   0.333333333   0.750000000
H        0.333333333   0.666666667   0.750000000
H        0.666666667   0.333333333   0.250000000
H        0.000000000  -0.000000000  -0.000000000
H       -0.000000000  -0.000000000   0.500000000
End final coordinates



     A final scf calculation at the relaxed structure.
     The G-vectors are recalculated for the final unit cell
     Results may differ from those at the preceding step.

     G-vector sticks info
     --------------------
     sticks:   dense  smooth     PW     G-vecs:    dense   smooth      PW
     Sum         847     847    253                24651    24651    4153



     bravais-lattice index     =            4
     lattice parameter (alat)  =       6.8695  a.u.
     unit-cell volume          =     254.2575 (a.u.)^3
     number of atoms/cell      =            6
     number of atomic types    =            2
     number of electrons       =        24.00
     number of Kohn-Sham states=           12
     kinetic-energy cutoff     =      80.0000  Ry
     charge density cutoff     =     320.0000  Ry
     convergence threshold     =      1.0E-08
     mixing beta               =       0.3000
     number of iterations used =           16  local-TF  mixing
     Exchange-correlation      = PBE ( 1 4 3 4 0)
     EXX-fraction              =        0.00

     celldm(1)=   6.869500  celldm(2)=   0.000000  celldm(3)=   1.310400
     celldm(4)=   0.000000  celldm(5)=   0.000000  celldm(6)=   0.000000

     crystal axes: (cart. coord. in units of alat)
               a(1) = (   0.896308   0.000000  -0.000000 )  
               a(2) = (  -0.448154   0.776226   0.000000 )  
               a(3) = (   0.000000  -0.000000   1.127335 )  

     reciprocal axes: (cart. coord. in units 2 pi/alat)
               b(1) = (  1.115688  0.644142 -0.000000 )  
               b(2) = ( -0.000000  1.288285  0.000000 )  
               b(3) = (  0.000000 -0.000000  0.887048 )  


     PseudoPot. # 1 for H  read from file:
     /home/ilia/espresso/pseudo/H.pbe-sp-mt.ncpp
     MD5 check sum: 7a641936b52ccecd26bd1ad87cca5aed
     Pseudo is Norm-conserving, Zval =  1.0
     Generated by old ld1 code (numerical format)
     Using radial grid of 1076 points,  0 beta functions with: 

     PseudoPot. # 2 for Ca read from file:
     /home/ilia/espresso/pseudo/Ca.pbe-sp-mt_ion2.ncpp
     MD5 check sum: 4bcd670d05521f7b178fdf0a334578ab
     Pseudo is Norm-conserving, Zval = 10.0
     Generated by old ld1 code (numerical format)
     Using radial grid of 1153 points,  1 beta functions with: 
                l(1) =   1

     atomic species   valence    mass     pseudopotential
        H              1.00     1.00700     H ( 1.00)
        Ca            10.00    40.07800     Ca( 1.00)

     24 Sym. Ops., with inversion, found (12 have fractional translation)



   Cartesian axes

     site n.     atom                  positions (alat units)
         1           Ca  tau(   1) = (   0.0000000   0.5174838   0.2818337  )
         2           Ca  tau(   2) = (   0.4481542   0.2587419   0.8455011  )
         3           H   tau(   3) = (   0.0000000   0.5174838   0.8455011  )
         4           H   tau(   4) = (   0.4481542   0.2587419   0.2818337  )
         5           H   tau(   5) = (   0.0000000  -0.0000000  -0.0000000  )
         6           H   tau(   6) = (   0.0000000  -0.0000000   0.5636674  )

     number of k points=    36
                       cart. coord. in units 2pi/alat
        k(    1) = (   0.0929740   0.1610356   0.0739207), wk =   0.0370370
        k(    2) = (   0.0929740   0.1610356   0.2217620), wk =   0.0370370
        k(    3) = (   0.0929740   0.1610356   0.3696033), wk =   0.0370370
        k(    4) = (   0.0929740   0.3757498   0.0739207), wk =   0.0740741
        k(    5) = (   0.0929740   0.3757498   0.2217620), wk =   0.0740741
        k(    6) = (   0.0929740   0.3757498   0.3696033), wk =   0.0740741
        k(    7) = (   0.0929740   0.5904640   0.0739207), wk =   0.0740741
        k(    8) = (   0.0929740   0.5904640   0.2217620), wk =   0.0740741
        k(    9) = (   0.0929740   0.5904640   0.3696033), wk =   0.0740741
        k(   10) = (   0.0929740  -0.4831069   0.0739207), wk =   0.0740741
        k(   11) = (   0.0929740  -0.4831069   0.2217620), wk =   0.0740741
        k(   12) = (   0.0929740  -0.4831069   0.3696033), wk =   0.0740741
        k(   13) = (   0.0929740  -0.2683927   0.0739207), wk =   0.0740741
        k(   14) = (   0.0929740  -0.2683927   0.2217620), wk =   0.0740741
        k(   15) = (   0.0929740  -0.2683927   0.3696033), wk =   0.0740741
        k(   16) = (   0.0929740  -0.0536785   0.0739207), wk =   0.0370370
        k(   17) = (   0.0929740  -0.0536785   0.2217620), wk =   0.0370370
        k(   18) = (   0.0929740  -0.0536785   0.3696033), wk =   0.0370370
        k(   19) = (   0.2789219   0.4831069   0.0739207), wk =   0.0370370
        k(   20) = (   0.2789219   0.4831069   0.2217620), wk =   0.0370370
        k(   21) = (   0.2789219   0.4831069   0.3696033), wk =   0.0370370
        k(   22) = (   0.2789219   0.6978210   0.0739207), wk =   0.0740741
        k(   23) = (   0.2789219   0.6978210   0.2217620), wk =   0.0740741
        k(   24) = (   0.2789219   0.6978210   0.3696033), wk =   0.0740741
        k(   25) = (   0.2789219  -0.3757498   0.0739207), wk =   0.0740741
        k(   26) = (   0.2789219  -0.3757498   0.2217620), wk =   0.0740741
        k(   27) = (   0.2789219  -0.3757498   0.3696033), wk =   0.0740741
        k(   28) = (   0.2789219  -0.1610356   0.0739207), wk =   0.0370370
        k(   29) = (   0.2789219  -0.1610356   0.2217620), wk =   0.0370370
        k(   30) = (   0.2789219  -0.1610356   0.3696033), wk =   0.0370370
        k(   31) = (   0.4648698   0.8051781   0.0739207), wk =   0.0370370
        k(   32) = (   0.4648698   0.8051781   0.2217620), wk =   0.0370370
        k(   33) = (   0.4648698   0.8051781   0.3696033), wk =   0.0370370
        k(   34) = (   0.4648698  -0.2683927   0.0739207), wk =   0.0370370
        k(   35) = (   0.4648698  -0.2683927   0.2217620), wk =   0.0370370
        k(   36) = (   0.4648698  -0.2683927   0.3696033), wk =   0.0370370

     Dense  grid:    24651 G-vectors     FFT dimensions: (  36,  36,  45)

     Largest allocated arrays     est. size (Mb)     dimensions
        Kohn-Sham Wavefunctions         0.57 Mb     (   3086,   12)
        NL pseudopotentials             0.28 Mb     (   3086,    6)
        Each V/rho on FFT grid          0.89 Mb     (  58320)
        Each G-vector array             0.19 Mb     (  24651)
        G-vector shells                 0.01 Mb     (   1192)
     Largest temporary arrays     est. size (Mb)     dimensions
        Auxiliary wavefunctions         2.26 Mb     (   3086,   48)
        Each subspace H/S matrix        0.04 Mb     (  48,  48)
        Each <psi_i|beta_j> matrix      0.00 Mb     (      6,   12)
        Arrays for rho mixing          14.24 Mb     (  58320,  16)

     Initial potential from superposition of free atoms

     starting charge   19.99996, renormalised to   24.00000
     Starting wfc are   12 randomized atomic wfcs

     Writing output data file CaH2_ambient.save

     total cpu time spent up to now is      878.4 secs

     per-process dynamical memory:    16.7 Mb

     Self-consistent Calculation

     iteration #  1     ecut=    80.00 Ry     beta=0.30
     Davidson diagonalization with overlap
     ethr =  1.00E-06,  avg # of iterations =  5.1

     total cpu time spent up to now is      893.8 secs

     total energy              =    -152.47449261 Ry
     Harris-Foulkes estimate   =    -153.56380534 Ry
     estimated scf accuracy    <       5.10248590 Ry

     iteration #  2     ecut=    80.00 Ry     beta=0.30
     Davidson diagonalization with overlap
     ethr =  1.00E-02,  avg # of iterations =  1.0

     total cpu time spent up to now is      898.3 secs

     total energy              =    -150.48362488 Ry
     Harris-Foulkes estimate   =    -152.53453901 Ry
     estimated scf accuracy    <       2.97486427 Ry

     iteration #  3     ecut=    80.00 Ry     beta=0.30
     Davidson diagonalization with overlap
     ethr =  1.00E-02,  avg # of iterations =  2.0

     total cpu time spent up to now is      904.8 secs

     total energy              =    -151.06266526 Ry
     Harris-Foulkes estimate   =    -151.06085328 Ry
     estimated scf accuracy    <       0.06435968 Ry

     iteration #  4     ecut=    80.00 Ry     beta=0.30
     Davidson diagonalization with overlap
     ethr =  2.68E-04,  avg # of iterations =  1.1

     total cpu time spent up to now is      909.2 secs

     total energy              =    -151.06910381 Ry
     Harris-Foulkes estimate   =    -151.06380062 Ry
     estimated scf accuracy    <       0.04159811 Ry

     iteration #  5     ecut=    80.00 Ry     beta=0.30
     Davidson diagonalization with overlap
     ethr =  1.73E-04,  avg # of iterations =  2.0

     total cpu time spent up to now is      914.2 secs

     total energy              =    -151.07180758 Ry
     Harris-Foulkes estimate   =    -151.07183872 Ry
     estimated scf accuracy    <       0.00075362 Ry

     iteration #  6     ecut=    80.00 Ry     beta=0.30
     Davidson diagonalization with overlap
     ethr =  3.14E-06,  avg # of iterations =  2.0

     total cpu time spent up to now is      919.1 secs

     total energy              =    -151.07190811 Ry
     Harris-Foulkes estimate   =    -151.07186045 Ry
     estimated scf accuracy    <       0.00036930 Ry

     iteration #  7     ecut=    80.00 Ry     beta=0.30
     Davidson diagonalization with overlap
     ethr =  1.54E-06,  avg # of iterations =  2.0

     total cpu time spent up to now is      923.9 secs

     total energy              =    -151.07188441 Ry
     Harris-Foulkes estimate   =    -151.07192906 Ry
     estimated scf accuracy    <       0.00008220 Ry

     iteration #  8     ecut=    80.00 Ry     beta=0.30
     Davidson diagonalization with overlap
     ethr =  3.42E-07,  avg # of iterations =  2.0

     total cpu time spent up to now is      930.0 secs

     total energy              =    -151.07189733 Ry
     Harris-Foulkes estimate   =    -151.07189614 Ry
     estimated scf accuracy    <       0.00000183 Ry

     iteration #  9     ecut=    80.00 Ry     beta=0.30
     Davidson diagonalization with overlap
     ethr =  7.63E-09,  avg # of iterations =  2.9

     total cpu time spent up to now is      936.8 secs

     total energy              =    -151.07189603 Ry
     Harris-Foulkes estimate   =    -151.07189916 Ry
     estimated scf accuracy    <       0.00000576 Ry

     iteration # 10     ecut=    80.00 Ry     beta=0.30
     Davidson diagonalization with overlap
     ethr =  7.63E-09,  avg # of iterations =  2.1

     total cpu time spent up to now is      943.2 secs

     total energy              =    -151.07189690 Ry
     Harris-Foulkes estimate   =    -151.07189688 Ry
     estimated scf accuracy    <       0.00000002 Ry

     iteration # 11     ecut=    80.00 Ry     beta=0.30
     Davidson diagonalization with overlap
     ethr =  9.85E-11,  avg # of iterations =  2.1

     total cpu time spent up to now is      949.7 secs

     total energy              =    -151.07189687 Ry
     Harris-Foulkes estimate   =    -151.07189691 Ry
     estimated scf accuracy    <       0.00000007 Ry

     iteration # 12     ecut=    80.00 Ry     beta=0.30
     Davidson diagonalization with overlap
     ethr =  9.85E-11,  avg # of iterations =  2.0

     total cpu time spent up to now is      956.0 secs

     End of self-consistent calculation

          k = 0.0930 0.1610 0.0739 (  3060 PWs)   bands (ev):

   -26.5812 -25.8600  -9.0078  -7.8619  -7.8229  -7.3822  -7.1378  -6.9619
     5.5702   8.5998  12.6293  12.7502

          k = 0.0930 0.1610 0.2218 (  3080 PWs)   bands (ev):

   -26.4886 -25.9616  -8.8709  -7.7880  -7.7075  -7.6550  -7.2297  -7.0298
     6.1441   8.6119  12.3196  12.9611

          k = 0.0930 0.1610 0.3696 (  3086 PWs)   bands (ev):

   -26.3253 -26.1327  -8.5845  -8.1744  -7.5634  -7.4629  -7.3868  -7.2119
     7.0948   8.0832  12.5454  12.9936

          k = 0.0930 0.3757 0.0739 (  3070 PWs)   bands (ev):

   -26.4197 -25.9102  -8.7497  -8.2629  -8.0169  -7.7649  -7.1860  -7.1388
     7.0774   9.2896  10.6950  11.7867

          k = 0.0930 0.3757 0.2218 (  3067 PWs)   bands (ev):

   -26.3511 -25.9783  -8.9244  -8.3345  -7.8824  -7.7248  -7.2674  -7.0341
     7.4968   9.4965  10.9835  11.2586

          k = 0.0930 0.3757 0.3696 (  3077 PWs)   bands (ev):

   -26.2335 -26.0966  -8.9157  -8.6905  -7.7099  -7.4783  -7.3395  -7.0824
     8.2352   9.0927  11.1925  11.3306

          k = 0.0930 0.5905 0.0739 (  3080 PWs)   bands (ev):

   -26.2522 -25.9954  -8.7764  -8.2490  -8.0842  -8.0417  -7.4639  -7.1484
     8.5315   9.3540   9.7665  11.2352

          k = 0.0930 0.5905 0.2218 (  3078 PWs)   bands (ev):

   -26.2149 -26.0266  -9.0545  -8.6061  -8.0461  -7.6366  -7.3057  -7.1349
     8.7670   9.6349  10.1645  10.8725

          k = 0.0930 0.5905 0.3696 (  3074 PWs)   bands (ev):

   -26.1518 -26.0833  -9.1476  -8.9880  -7.8168  -7.5452  -7.2490  -7.0587
     9.1676   9.6041  10.6585  10.7577

          k = 0.0930-0.4831 0.0739 (  3073 PWs)   bands (ev):

   -26.3237 -25.9539  -8.7100  -8.3442  -8.0521  -7.9402  -7.3408  -7.1446
     7.9084   9.4740  10.0293  11.4277

          k = 0.0930-0.4831 0.2218 (  3071 PWs)   bands (ev):

   -26.2723 -26.0012  -8.9947  -8.5211  -7.9858  -7.6817  -7.2893  -7.0888
     8.2323   9.7782  10.3485  10.9505

          k = 0.0930-0.4831 0.3696 (  3067 PWs)   bands (ev):

   -26.1842 -26.0850  -9.0625  -8.8850  -7.7779  -7.5207  -7.2834  -7.0621
     8.8098   9.5060  10.7781  10.8963

          k = 0.0930-0.2684 0.0739 (  3060 PWs)   bands (ev):

   -26.5106 -25.8787  -8.8876  -8.0388  -7.9362  -7.5729  -7.1387  -7.0491
     6.2418   8.9465  11.6410  12.2300

          k = 0.0930-0.2684 0.2218 (  3071 PWs)   bands (ev):

   -26.4285 -25.9656  -8.8832  -8.0644  -7.7663  -7.7324  -7.2462  -7.0070
     6.7469   9.0357  11.7587  11.9055

          k = 0.0930-0.2684 0.3696 (  3079 PWs)   bands (ev):

   -26.2842 -26.1145  -8.7426  -8.4359  -7.6309  -7.4296  -7.4037  -7.1317
     7.6088   8.5499  11.8222  12.0786

          k = 0.0930-0.0537 0.0739 (  3065 PWs)   bands (ev):

   -26.6194 -25.8520  -9.0740  -7.7754  -7.7473  -7.2418  -7.1405  -6.9271
     5.1957   8.3872  12.8630  13.6800

          k = 0.0930-0.0537 0.2218 (  3071 PWs)   bands (ev):

   -26.5208 -25.9603  -8.8710  -7.6754  -7.6674  -7.5035  -7.2231  -7.0927
     5.8097   8.3647  12.6929  13.8603

          k = 0.0930-0.0537 0.3696 (  3078 PWs)   bands (ev):

   -26.3479 -26.1431  -8.4871  -7.9870  -7.5279  -7.4961  -7.3652  -7.2916
     6.8083   7.8192  13.0925  13.7576

          k = 0.2789 0.4831 0.0739 (  3058 PWs)   bands (ev):

   -26.2534 -25.9921  -8.5657  -8.5126  -8.0113  -7.9971  -7.4453  -7.2573
     8.4417   9.7227   9.7702  11.1801

          k = 0.2789 0.4831 0.2218 (  3070 PWs)   bands (ev):

   -26.2163 -26.0245  -8.8788  -8.6572  -8.2128  -7.5260  -7.4196  -7.1180
     8.7339  10.1355  10.1801  10.7056

          k = 0.2789 0.4831 0.3696 (  3070 PWs)   bands (ev):

   -26.1522 -26.0826  -9.0279  -8.9278  -8.0191  -7.7153  -7.1454  -7.0005
     9.2590   9.9349  10.6909  10.7077

          k = 0.2789 0.6978 0.0739 (  3072 PWs)   bands (ev):

   -26.1792 -26.0451  -8.6561  -8.3834  -8.1569  -7.8922  -7.5870  -7.2916
     8.8581   9.6217   9.7819  11.0243

          k = 0.2789 0.6978 0.2218 (  3068 PWs)   bands (ev):

   -26.1577 -26.0588  -8.8560  -8.6768  -8.3739  -7.4854  -7.4066  -7.1870
     9.0933  10.0543  10.2182  10.6802

          k = 0.2789 0.6978 0.3696 (  3073 PWs)   bands (ev):

   -26.1229 -26.0868  -9.0385  -8.9716  -8.1239  -7.7892  -7.0820  -6.9994
     9.5249  10.0682  10.6852  10.7295

          k = 0.2789-0.3757 0.0739 (  3068 PWs)   bands (ev):

   -26.3405 -25.9447  -8.6403  -8.4044  -8.0796  -7.8548  -7.3030  -7.1973
     7.7676   9.5380  10.1549  11.4591

          k = 0.2789-0.3757 0.2218 (  3073 PWs)   bands (ev):

   -26.2863 -25.9961  -8.9178  -8.5234  -8.0289  -7.6352  -7.3462  -7.0611
     8.1255   9.8565  10.5032  10.9217

          k = 0.2789-0.3757 0.3696 (  3074 PWs)   bands (ev):

   -26.1927 -26.0866  -8.9912  -8.8304  -7.8604  -7.5962  -7.2386  -7.0294
     8.7641   9.5444  10.8640  10.9322

          k = 0.2789-0.1610 0.0739 (  3068 PWs)   bands (ev):

   -26.4789 -25.8892  -8.8380  -8.1547  -7.9089  -7.6871  -7.1194  -7.0972
     6.5359   9.0705  11.2582  12.0691

          k = 0.2789-0.1610 0.2218 (  3059 PWs)   bands (ev):

   -26.4009 -25.9686  -8.9041  -8.1556  -7.8074  -7.7513  -7.2297  -7.0221
     7.0089   9.1985  11.4874  11.6056

          k = 0.2789-0.1610 0.3696 (  3077 PWs)   bands (ev):

   -26.2659 -26.1076  -8.8176  -8.5400  -7.6286  -7.4172  -7.4048  -7.1265
     7.8260   8.7385  11.5655  11.7687

          k = 0.4649 0.8052 0.0739 (  3076 PWs)   bands (ev):

   -26.2103 -26.0227  -8.7303  -8.2943  -8.1427  -7.9651  -7.5338  -7.2235
     8.7916   9.4416   9.7572  11.1086

          k = 0.4649 0.8052 0.2218 (  3073 PWs)   bands (ev):

   -26.1817 -26.0442  -8.9804  -8.6285  -8.2345  -7.5054  -7.4074  -7.1520
     9.0095   9.7910  10.1854  10.7803

          k = 0.4649 0.8052 0.3696 (  3077 PWs)   bands (ev):

   -26.1349 -26.0844  -9.1050  -8.9835  -7.9901  -7.6831  -7.1496  -7.0164
     9.3977   9.8393  10.6842  10.7064

          k = 0.4649-0.2684 0.0739 (  3067 PWs)   bands (ev):

   -26.2919 -25.9709  -8.7677  -8.2753  -8.0491  -8.0262  -7.3968  -7.1175
     8.1812   9.3943   9.8673  11.3524

          k = 0.4649-0.2684 0.2218 (  3084 PWs)   bands (ev):

   -26.2476 -26.0120  -9.0559  -8.5639  -7.9313  -7.7292  -7.2499  -7.1265
     8.4574   9.6702  10.2133  10.9344

          k = 0.4649-0.2684 0.3696 (  3076 PWs)   bands (ev):

   -26.1698 -26.0840  -9.1309  -8.9524  -7.7225  -7.4733  -7.3148  -7.0880
     8.9411   9.4996  10.6934  10.8279

!    total energy              =    -151.07189688 Ry
     Harris-Foulkes estimate   =    -151.07189688 Ry
     estimated scf accuracy    <          1.1E-09 Ry

     The total energy is the sum of the following terms:

     one-electron contribution =     -22.19989626 Ry
     hartree contribution      =      22.56471416 Ry
     xc contribution           =     -24.42775719 Ry
     ewald contribution        =    -127.00895759 Ry

     convergence has been achieved in  12 iterations

     Forces acting on atoms (Ry/au):

     atom    1 type  2   force =    -0.00000000    0.00000000    0.00000000
     atom    2 type  2   force =     0.00000000   -0.00000000   -0.00000000
     atom    3 type  1   force =     0.00000000   -0.00000000   -0.00000000
     atom    4 type  1   force =    -0.00000000    0.00000000    0.00000000
     atom    5 type  1   force =     0.00000000    0.00000000    0.00000000
     atom    6 type  1   force =    -0.00000000    0.00000000   -0.00000000

     Total force =     0.000000     Total SCF correction =     0.000000


     entering subroutine stress ...

          total   stress  (Ry/bohr**3)                   (kbar)     P=  976.43
   0.00663998   0.00000000  -0.00000000        976.77      0.00     -0.00
   0.00000000   0.00663998   0.00000000          0.00    976.77      0.00
  -0.00000000   0.00000000   0.00663302         -0.00      0.00    975.75


     Writing output data file CaH2_ambient.save

     init_run     :     37.88s CPU     38.22s WALL (       2 calls)
     electrons    :    522.42s CPU    530.62s WALL (       6 calls)
     update_pot   :    164.14s CPU    165.18s WALL (       4 calls)
     forces       :     71.37s CPU     71.57s WALL (       6 calls)
     stress       :    152.97s CPU    153.45s WALL (       6 calls)

     Called by init_run:
     wfcinit      :      6.21s CPU      6.26s WALL (       2 calls)
     potinit      :     14.41s CPU     14.48s WALL (       2 calls)

     Called by electrons:
     c_bands      :    430.72s CPU    436.96s WALL (      52 calls)
     sum_band     :     77.85s CPU     79.29s WALL (      52 calls)
     v_of_rho     :      7.70s CPU      7.84s WALL (      58 calls)
     mix_rho      :      6.58s CPU      6.89s WALL (      52 calls)

     Called by c_bands:
     init_us_2    :     11.54s CPU     12.53s WALL (    4248 calls)
     cegterg      :    424.52s CPU    428.59s WALL (    1872 calls)

     Called by *egterg:
     h_psi        :    342.76s CPU    345.49s WALL (    6178 calls)
     g_psi        :      2.63s CPU      2.68s WALL (    4234 calls)
     cdiaghg      :      3.07s CPU      3.14s WALL (    5962 calls)

     Called by h_psi:
     add_vuspsi   :      5.33s CPU      5.34s WALL (    6178 calls)

     General routines
     calbec       :      5.64s CPU      5.75s WALL (    6610 calls)
     fft          :      2.19s CPU      2.22s WALL (     684 calls)
     ffts         :      2.75s CPU      2.76s WALL (     868 calls)
     fftw         :    323.70s CPU    325.60s WALL (  149650 calls)
     davcio       :      1.38s CPU      3.62s WALL (    6120 calls)


     PWSCF        : 15m49.55s CPU    15m59.97s WALL


   This run was terminated on:  16:32:27   3Jun2014            

=------------------------------------------------------------------------------=
   JOB DONE.
=------------------------------------------------------------------------------=
