
     Program PWSCF v.5.0.2 (svn rev. 9392) starts on  3Jun2014 at 15:28:13 

     This program is part of the open-source Quantum ESPRESSO suite
     for quantum simulation of materials; please cite
         "P. Giannozzi et al., J. Phys.:Condens. Matter 21 395502 (2009);
          URL http://www.quantum-espresso.org", 
     in publications or presentations arising from this work. More details at
     http://www.quantum-espresso.org/quote.php

     Serial version

     Current dimensions of program PWSCF are:
     Max number of different atomic species (ntypx) = 10
     Max number of k-points (npk) =  40000
     Max angular momentum in pseudopotentials (lmaxx) =  3
     Waiting for input...
     Reading input from standard input

     G-vector sticks info
     --------------------
     sticks:   dense  smooth     PW     G-vecs:    dense   smooth      PW
     Sum        1039    1039    313                35601    35601    5799



     bravais-lattice index     =            4
     lattice parameter (alat)  =       6.8695  a.u.
     unit-cell volume          =     367.8832 (a.u.)^3
     number of atoms/cell      =            6
     number of atomic types    =            2
     number of electrons       =        24.00
     number of Kohn-Sham states=           12
     kinetic-energy cutoff     =      80.0000  Ry
     charge density cutoff     =     320.0000  Ry
     convergence threshold     =      1.0E-06
     mixing beta               =       0.3000
     number of iterations used =           16  local-TF  mixing
     Exchange-correlation      = PBE ( 1 4 3 4 0)
     EXX-fraction              =        0.00
     nstep                     =           50


     celldm(1)=   6.869500  celldm(2)=   0.000000  celldm(3)=   1.310400
     celldm(4)=   0.000000  celldm(5)=   0.000000  celldm(6)=   0.000000

     crystal axes: (cart. coord. in units of alat)
               a(1) = (   1.000000   0.000000   0.000000 )  
               a(2) = (  -0.500000   0.866025   0.000000 )  
               a(3) = (   0.000000   0.000000   1.310400 )  

     reciprocal axes: (cart. coord. in units 2 pi/alat)
               b(1) = (  1.000000  0.577350 -0.000000 )  
               b(2) = (  0.000000  1.154701  0.000000 )  
               b(3) = (  0.000000 -0.000000  0.763126 )  


     PseudoPot. # 1 for H  read from file:
     /home/ilia/espresso/pseudo/H.pbe-sp-mt.ncpp
     MD5 check sum: 7a641936b52ccecd26bd1ad87cca5aed
     Pseudo is Norm-conserving, Zval =  1.0
     Generated by old ld1 code (numerical format)
     Using radial grid of 1076 points,  0 beta functions with: 

     PseudoPot. # 2 for Ca read from file:
     /home/ilia/espresso/pseudo/Ca.pbe-sp-mt_ion2.ncpp
     MD5 check sum: 4bcd670d05521f7b178fdf0a334578ab
     Pseudo is Norm-conserving, Zval = 10.0
     Generated by old ld1 code (numerical format)
     Using radial grid of 1153 points,  1 beta functions with: 
                l(1) =   1

     atomic species   valence    mass     pseudopotential
        H              1.00     1.00700     H ( 1.00)
        Ca            10.00    40.07800     Ca( 1.00)

     24 Sym. Ops., with inversion, found (12 have fractional translation)



   Cartesian axes

     site n.     atom                  positions (alat units)
         1           Ca  tau(   1) = (   0.0000000   0.5773503   0.3276000  )
         2           Ca  tau(   2) = (   0.5000000   0.2886751   0.9828000  )
         3           H   tau(   3) = (   0.0000000   0.5773503   0.9828000  )
         4           H   tau(   4) = (   0.5000000   0.2886751   0.3276000  )
         5           H   tau(   5) = (   0.0000000   0.0000000   0.0000000  )
         6           H   tau(   6) = (   0.0000000   0.0000000   0.6552000  )

     number of k points=    36
                       cart. coord. in units 2pi/alat
        k(    1) = (   0.0833333   0.1443376   0.0635938), wk =   0.0370370
        k(    2) = (   0.0833333   0.1443376   0.1907814), wk =   0.0370370
        k(    3) = (   0.0833333   0.1443376   0.3179691), wk =   0.0370370
        k(    4) = (   0.0833333   0.3367877   0.0635938), wk =   0.0740741
        k(    5) = (   0.0833333   0.3367877   0.1907814), wk =   0.0740741
        k(    6) = (   0.0833333   0.3367877   0.3179691), wk =   0.0740741
        k(    7) = (   0.0833333   0.5292377   0.0635938), wk =   0.0740741
        k(    8) = (   0.0833333   0.5292377   0.1907814), wk =   0.0740741
        k(    9) = (   0.0833333   0.5292377   0.3179691), wk =   0.0740741
        k(   10) = (   0.0833333  -0.4330127   0.0635938), wk =   0.0740741
        k(   11) = (   0.0833333  -0.4330127   0.1907814), wk =   0.0740741
        k(   12) = (   0.0833333  -0.4330127   0.3179691), wk =   0.0740741
        k(   13) = (   0.0833333  -0.2405626   0.0635938), wk =   0.0740741
        k(   14) = (   0.0833333  -0.2405626   0.1907814), wk =   0.0740741
        k(   15) = (   0.0833333  -0.2405626   0.3179691), wk =   0.0740741
        k(   16) = (   0.0833333  -0.0481125   0.0635938), wk =   0.0370370
        k(   17) = (   0.0833333  -0.0481125   0.1907814), wk =   0.0370370
        k(   18) = (   0.0833333  -0.0481125   0.3179691), wk =   0.0370370
        k(   19) = (   0.2500000   0.4330127   0.0635938), wk =   0.0370370
        k(   20) = (   0.2500000   0.4330127   0.1907814), wk =   0.0370370
        k(   21) = (   0.2500000   0.4330127   0.3179691), wk =   0.0370370
        k(   22) = (   0.2500000   0.6254628   0.0635938), wk =   0.0740741
        k(   23) = (   0.2500000   0.6254628   0.1907814), wk =   0.0740741
        k(   24) = (   0.2500000   0.6254628   0.3179691), wk =   0.0740741
        k(   25) = (   0.2500000  -0.3367877   0.0635938), wk =   0.0740741
        k(   26) = (   0.2500000  -0.3367877   0.1907814), wk =   0.0740741
        k(   27) = (   0.2500000  -0.3367877   0.3179691), wk =   0.0740741
        k(   28) = (   0.2500000  -0.1443376   0.0635938), wk =   0.0370370
        k(   29) = (   0.2500000  -0.1443376   0.1907814), wk =   0.0370370
        k(   30) = (   0.2500000  -0.1443376   0.3179691), wk =   0.0370370
        k(   31) = (   0.4166667   0.7216878   0.0635938), wk =   0.0370370
        k(   32) = (   0.4166667   0.7216878   0.1907814), wk =   0.0370370
        k(   33) = (   0.4166667   0.7216878   0.3179691), wk =   0.0370370
        k(   34) = (   0.4166667  -0.2405626   0.0635938), wk =   0.0370370
        k(   35) = (   0.4166667  -0.2405626   0.1907814), wk =   0.0370370
        k(   36) = (   0.4166667  -0.2405626   0.3179691), wk =   0.0370370

     Dense  grid:    35601 G-vectors     FFT dimensions: (  40,  40,  54)

     Largest allocated arrays     est. size (Mb)     dimensions
        Kohn-Sham Wavefunctions         0.82 Mb     (   4465,   12)
        NL pseudopotentials             0.41 Mb     (   4465,    6)
        Each V/rho on FFT grid          1.32 Mb     (  86400)
        Each G-vector array             0.27 Mb     (  35601)
        G-vector shells                 0.27 Mb     (  35601)
     Largest temporary arrays     est. size (Mb)     dimensions
        Auxiliary wavefunctions         3.27 Mb     (   4465,   48)
        Each subspace H/S matrix        0.04 Mb     (  48,  48)
        Each <psi_i|beta_j> matrix      0.00 Mb     (      6,   12)
        Arrays for rho mixing          21.09 Mb     (  86400,  16)

     Initial potential from superposition of free atoms

     starting charge   19.99996, renormalised to   24.00000
     Starting wfc are   12 randomized atomic wfcs

     total cpu time spent up to now is       33.1 secs

     per-process dynamical memory:    18.0 Mb

     Self-consistent Calculation

     iteration #  1     ecut=    80.00 Ry     beta=0.30
     Davidson diagonalization with overlap
     ethr =  1.00E-02,  avg # of iterations =  2.0

     total cpu time spent up to now is       44.6 secs

     total energy              =    -153.07279251 Ry
     Harris-Foulkes estimate   =    -154.21365382 Ry
     estimated scf accuracy    <       5.60363544 Ry

     iteration #  2     ecut=    80.00 Ry     beta=0.30
     Davidson diagonalization with overlap
     ethr =  1.00E-02,  avg # of iterations =  1.0

     total cpu time spent up to now is       52.8 secs

     total energy              =    -150.83698953 Ry
     Harris-Foulkes estimate   =    -153.13636637 Ry
     estimated scf accuracy    <       3.36085036 Ry

     iteration #  3     ecut=    80.00 Ry     beta=0.30
     Davidson diagonalization with overlap
     ethr =  1.00E-02,  avg # of iterations =  2.0

     total cpu time spent up to now is       64.4 secs

     total energy              =    -151.46406444 Ry
     Harris-Foulkes estimate   =    -151.46887677 Ry
     estimated scf accuracy    <       0.12171909 Ry

     iteration #  4     ecut=    80.00 Ry     beta=0.30
     Davidson diagonalization with overlap
     ethr =  5.07E-04,  avg # of iterations =  1.2

     total cpu time spent up to now is       72.6 secs

     total energy              =    -151.46762627 Ry
     Harris-Foulkes estimate   =    -151.46640676 Ry
     estimated scf accuracy    <       0.07585957 Ry

     iteration #  5     ecut=    80.00 Ry     beta=0.30
     Davidson diagonalization with overlap
     ethr =  3.16E-04,  avg # of iterations =  2.0

     total cpu time spent up to now is       81.8 secs

     total energy              =    -151.47348455 Ry
     Harris-Foulkes estimate   =    -151.47365066 Ry
     estimated scf accuracy    <       0.00214786 Ry

     iteration #  6     ecut=    80.00 Ry     beta=0.30
     Davidson diagonalization with overlap
     ethr =  8.95E-06,  avg # of iterations =  2.1

     total cpu time spent up to now is       90.6 secs

     total energy              =    -151.47376356 Ry
     Harris-Foulkes estimate   =    -151.47362701 Ry
     estimated scf accuracy    <       0.00104735 Ry

     iteration #  7     ecut=    80.00 Ry     beta=0.30
     Davidson diagonalization with overlap
     ethr =  4.36E-06,  avg # of iterations =  2.0

     total cpu time spent up to now is       99.8 secs

     total energy              =    -151.47368567 Ry
     Harris-Foulkes estimate   =    -151.47383291 Ry
     estimated scf accuracy    <       0.00022358 Ry

     iteration #  8     ecut=    80.00 Ry     beta=0.30
     Davidson diagonalization with overlap
     ethr =  9.32E-07,  avg # of iterations =  2.0

     total cpu time spent up to now is      111.5 secs

     total energy              =    -151.47372341 Ry
     Harris-Foulkes estimate   =    -151.47372142 Ry
     estimated scf accuracy    <       0.00000279 Ry

     iteration #  9     ecut=    80.00 Ry     beta=0.30
     Davidson diagonalization with overlap
     ethr =  1.16E-08,  avg # of iterations =  2.8

     total cpu time spent up to now is      123.8 secs

     total energy              =    -151.47372133 Ry
     Harris-Foulkes estimate   =    -151.47372645 Ry
     estimated scf accuracy    <       0.00001100 Ry

     iteration # 10     ecut=    80.00 Ry     beta=0.30
     Davidson diagonalization with overlap
     ethr =  1.16E-08,  avg # of iterations =  2.0

     total cpu time spent up to now is      135.4 secs

     End of self-consistent calculation

          k = 0.0833 0.1443 0.0636 (  4433 PWs)   bands (ev):

   -31.6045 -31.4301 -13.5095 -13.0075 -12.9923 -12.8512 -12.7664 -12.7627
     1.5643   4.8269   7.1756   8.3198

          k = 0.0833 0.1443 0.1908 (  4435 PWs)   bands (ev):

   -31.5814 -31.4538 -13.4435 -12.9928 -12.9630 -12.9500 -12.7964 -12.7655
     1.9481   4.3204   7.4758   8.4049

          k = 0.0833 0.1443 0.3180 (  4455 PWs)   bands (ev):

   -31.5420 -31.4949 -13.3182 -13.1536 -12.9074 -12.8905 -12.8481 -12.8153
     2.6401   3.5004   7.9861   8.3634

          k = 0.0833 0.3368 0.0636 (  4441 PWs)   bands (ev):

   -31.5650 -31.4417 -13.4003 -13.1382 -13.0610 -12.9855 -12.8393 -12.7724
     2.6554   5.2232   6.5935   6.9560

          k = 0.0833 0.3368 0.1908 (  4446 PWs)   bands (ev):

   -31.5484 -31.4583 -13.4281 -13.1786 -13.0200 -12.9899 -12.8135 -12.7780
     2.9870   4.9640   6.7066   6.8791

          k = 0.0833 0.3368 0.3180 (  4452 PWs)   bands (ev):

   -31.5199 -31.4870 -13.4051 -13.3136 -12.9564 -12.8852 -12.8679 -12.7914
     3.5876   4.3279   6.8707   6.9496

          k = 0.0833 0.5292 0.0636 (  4457 PWs)   bands (ev):

   -31.5247 -31.4619 -13.3327 -13.1869 -13.1071 -13.0767 -12.9331 -12.7780
     4.1438   4.8981   5.5777   6.7989

          k = 0.0833 0.5292 0.1908 (  4454 PWs)   bands (ev):

   -31.5162 -31.4696 -13.4411 -13.2842 -13.0737 -12.9747 -12.8396 -12.8066
     4.4001   5.1417   5.6477   6.3446

          k = 0.0833 0.5292 0.3180 (  4444 PWs)   bands (ev):

   -31.5010 -31.4837 -13.4726 -13.4157 -12.9923 -12.9044 -12.8501 -12.7901
     4.8552   5.3526   5.6060   5.9050

          k = 0.0833-0.4330 0.0636 (  4446 PWs)   bands (ev):

   -31.5420 -31.4517 -13.3473 -13.1918 -13.0806 -13.0476 -12.8923 -12.7758
     3.3855   5.3047   5.8606   6.8539

          k = 0.0833-0.4330 0.1908 (  4453 PWs)   bands (ev):

   -31.5300 -31.4636 -13.4326 -13.2490 -13.0540 -12.9852 -12.8262 -12.7959
     3.6822   5.2870   5.9805   6.5531

          k = 0.0833-0.4330 0.3180 (  4446 PWs)   bands (ev):

   -31.5089 -31.4838 -13.4474 -13.3795 -12.9792 -12.8966 -12.8585 -12.7891
     4.2158   4.8549   6.2109   6.4016

          k = 0.0833-0.2406 0.0636 (  4445 PWs)   bands (ev):

   -31.5873 -31.4349 -13.4613 -13.0632 -13.0299 -12.9170 -12.7930 -12.7690
     2.0265   5.0258   7.0726   7.4478

          k = 0.0833-0.2406 0.1908 (  4435 PWs)   bands (ev):

   -31.5668 -31.4549 -13.4334 -13.0853 -12.9837 -12.9791 -12.8037 -12.7651
     2.3880   4.6095   7.1761   7.5724

          k = 0.0833-0.2406 0.3180 (  4447 PWs)   bands (ev):

   -31.5318 -31.4908 -13.3578 -13.2318 -12.9300 -12.8857 -12.8615 -12.8003
     3.0422   3.8556   7.4642   7.6438

          k = 0.0833-0.0481 0.0636 (  4430 PWs)   bands (ev):

   -31.6138 -31.4283 -13.5357 -12.9786 -12.9695 -12.8043 -12.7656 -12.7516
     1.3194   4.7053   7.2332   8.9760

          k = 0.0833-0.0481 0.1908 (  4422 PWs)   bands (ev):

   -31.5890 -31.4532 -13.4509 -12.9476 -12.9423 -12.9196 -12.7931 -12.7766
     1.7153   4.1596   7.6503   9.0287

          k = 0.0833-0.0481 0.3180 (  4450 PWs)   bands (ev):

   -31.5472 -31.4973 -13.2960 -13.1030 -12.8952 -12.8913 -12.8406 -12.8289
     2.4268   3.3101   8.3230   8.8787

          k = 0.2500 0.4330 0.0636 (  4434 PWs)   bands (ev):

   -31.5244 -31.4608 -13.2900 -13.2275 -13.0878 -13.0736 -12.9220 -12.8165
     3.8450   5.3470   5.5953   6.8153

          k = 0.2500 0.4330 0.1908 (  4442 PWs)   bands (ev):

   -31.5160 -31.4691 -13.3961 -13.2888 -13.1247 -12.9403 -12.8647 -12.8086
     4.1216   5.4218   5.7947   6.4454

          k = 0.2500 0.4330 0.3180 (  4447 PWs)   bands (ev):

   -31.5011 -31.4837 -13.4377 -13.3957 -13.0529 -12.9570 -12.8160 -12.7698
     4.6124   5.1692   6.0600   6.2077

          k = 0.2500 0.6255 0.0636 (  4440 PWs)   bands (ev):

   -31.5065 -31.4733 -13.2674 -13.2205 -13.1337 -13.0574 -12.9676 -12.8296
     4.4557   5.0850   5.3689   6.7890

          k = 0.2500 0.6255 0.1908 (  4450 PWs)   bands (ev):

   -31.5021 -31.4777 -13.3783 -13.3092 -13.1709 -12.9077 -12.8837 -12.8309
     4.6942   5.3140   5.5419   6.3924

          k = 0.2500 0.6255 0.3180 (  4441 PWs)   bands (ev):

   -31.4937 -31.4850 -13.4393 -13.4139 -13.0846 -12.9796 -12.7971 -12.7706
     5.1135   5.5112   5.7150   5.9273

          k = 0.2500-0.3368 0.0636 (  4442 PWs)   bands (ev):

   -31.5458 -31.4497 -13.3478 -13.1808 -13.0954 -13.0204 -12.8769 -12.7939
     3.2127   5.3231   6.0724   6.8735

          k = 0.2500-0.3368 0.1908 (  4438 PWs)   bands (ev):

   -31.5328 -31.4620 -13.4163 -13.2412 -13.0671 -12.9709 -12.8397 -12.7883
     3.5190   5.2262   6.2416   6.6144

          k = 0.2500-0.3368 0.3180 (  4444 PWs)   bands (ev):

   -31.5104 -31.4843 -13.4272 -13.3609 -13.0041 -12.9203 -12.8425 -12.7769
     4.0708   4.7353   6.4572   6.5484

          k = 0.2500-0.1443 0.0636 (  4444 PWs)   bands (ev):

   -31.5794 -31.4371 -13.4400 -13.1016 -13.0224 -12.9553 -12.8104 -12.7637
     2.2441   5.1034   7.0159   7.1184

          k = 0.2500-0.1443 0.1908 (  4445 PWs)   bands (ev):

   -31.5605 -31.4561 -13.4325 -13.1194 -12.9958 -12.9882 -12.7989 -12.7733
     2.5950   4.7372   7.0268   7.2631

          k = 0.2500-0.1443 0.3180 (  4452 PWs)   bands (ev):

   -31.5276 -31.4894 -13.3776 -13.2647 -12.9287 -12.8896 -12.8594 -12.8028
     3.2306   4.0198   7.2361   7.3628

          k = 0.4167 0.7217 0.0636 (  4450 PWs)   bands (ev):

   -31.5146 -31.4680 -13.3066 -13.1902 -13.1266 -13.0713 -12.9538 -12.8048
     4.5152   4.7488   5.5149   6.7895

          k = 0.4167 0.7217 0.1908 (  4439 PWs)   bands (ev):

   -31.5076 -31.4736 -13.4152 -13.2947 -13.1307 -12.9331 -12.8690 -12.8153
     4.7323   5.0253   5.6455   6.3483

          k = 0.4167 0.7217 0.3180 (  4442 PWs)   bands (ev):

   -31.4966 -31.4842 -13.4592 -13.4162 -13.0454 -12.9477 -12.8183 -12.7759
     5.1394   5.4029   5.7020   5.7605

          k = 0.4167-0.2406 0.0636 (  4457 PWs)   bands (ev):

   -31.5350 -31.4557 -13.3445 -13.1932 -13.0850 -13.0699 -12.9119 -12.7668
     3.7117   5.1722   5.6499   6.8232

          k = 0.4167-0.2406 0.1908 (  4465 PWs)   bands (ev):

   -31.5242 -31.4666 -13.4457 -13.2675 -13.0302 -13.0099 -12.8161 -12.8083
     3.9914   5.3303   5.6867   6.4354

          k = 0.4167-0.2406 0.3180 (  4445 PWs)   bands (ev):

   -31.5052 -31.4838 -13.4678 -13.4026 -12.9607 -12.8795 -12.8727 -12.8008
     4.4917   5.0801   5.8795   6.1533

!    total energy              =    -151.47372293 Ry
     Harris-Foulkes estimate   =    -151.47372295 Ry
     estimated scf accuracy    <       0.00000006 Ry

     The total energy is the sum of the following terms:

     one-electron contribution =     -43.98543225 Ry
     hartree contribution      =      28.58806407 Ry
     xc contribution           =     -23.69889745 Ry
     ewald contribution        =    -112.37745729 Ry

     convergence has been achieved in  10 iterations

     Forces acting on atoms (Ry/au):

     atom    1 type  2   force =     0.00000000   -0.00000000    0.00000000
     atom    2 type  2   force =     0.00000000    0.00000000    0.00000000
     atom    3 type  1   force =    -0.00000000    0.00000000    0.00000000
     atom    4 type  1   force =     0.00000000   -0.00000000   -0.00000000
     atom    5 type  1   force =    -0.00000000   -0.00000000   -0.00000000
     atom    6 type  1   force =     0.00000000    0.00000000   -0.00000000

     Total force =     0.000000     Total SCF correction =     0.000000


     entering subroutine stress ...

          total   stress  (Ry/bohr**3)                   (kbar)     P=  201.96
   0.00134506  -0.00000000   0.00000000        197.87     -0.00      0.00
  -0.00000000   0.00134506   0.00000000         -0.00    197.87      0.00
   0.00000000   0.00000000   0.00142857          0.00      0.00    210.15


     BFGS Geometry Optimization

     number of scf cycles    =   1
     number of bfgs steps    =   0

     enthalpy new            =    -150.9735590793 Ry

     new trust radius        =       0.0066172339 bohr
     new conv_thr            =       0.0000010000 Ry

     new unit-cell volume =    368.25045 a.u.^3 (    54.56909 Ang^3 )

CELL_PARAMETERS (alat=  6.86950000)
   0.999637257  -0.000000000   0.000000000
  -0.499818628   0.865711259   0.000000000
   0.000000000   0.000000000   1.312660453

ATOMIC_POSITIONS (crystal)
Ca       0.333333333   0.666666667   0.250000000
Ca       0.666666667   0.333333333   0.750000000
H        0.333333333   0.666666667   0.750000000
H        0.666666667   0.333333333   0.250000000
H       -0.000000000  -0.000000000  -0.000000000
H        0.000000000   0.000000000   0.500000000



     Writing output data file CaH2_ambient.save
     NEW-OLD atomic charge density approx. for the potential
     NEW k-points:
        k(    1) = (   0.0833636   0.1443899   0.0634843), wk =   0.0370370
        k(    2) = (   0.0833636   0.1443899   0.1904529), wk =   0.0370370
        k(    3) = (   0.0833636   0.1443899   0.3174215), wk =   0.0370370
        k(    4) = (   0.0833636   0.3369099   0.0634843), wk =   0.0740741
        k(    5) = (   0.0833636   0.3369099   0.1904529), wk =   0.0740741
        k(    6) = (   0.0833636   0.3369099   0.3174215), wk =   0.0740741
        k(    7) = (   0.0833636   0.5294298   0.0634843), wk =   0.0740741
        k(    8) = (   0.0833636   0.5294298   0.1904529), wk =   0.0740741
        k(    9) = (   0.0833636   0.5294298   0.3174215), wk =   0.0740741
        k(   10) = (   0.0833636  -0.4331698   0.0634843), wk =   0.0740741
        k(   11) = (   0.0833636  -0.4331698   0.1904529), wk =   0.0740741
        k(   12) = (   0.0833636  -0.4331698   0.3174215), wk =   0.0740741
        k(   13) = (   0.0833636  -0.2406499   0.0634843), wk =   0.0740741
        k(   14) = (   0.0833636  -0.2406499   0.1904529), wk =   0.0740741
        k(   15) = (   0.0833636  -0.2406499   0.3174215), wk =   0.0740741
        k(   16) = (   0.0833636  -0.0481300   0.0634843), wk =   0.0370370
        k(   17) = (   0.0833636  -0.0481300   0.1904529), wk =   0.0370370
        k(   18) = (   0.0833636  -0.0481300   0.3174215), wk =   0.0370370
        k(   19) = (   0.2500907   0.4331698   0.0634843), wk =   0.0370370
        k(   20) = (   0.2500907   0.4331698   0.1904529), wk =   0.0370370
        k(   21) = (   0.2500907   0.4331698   0.3174215), wk =   0.0370370
        k(   22) = (   0.2500907   0.6256898   0.0634843), wk =   0.0740741
        k(   23) = (   0.2500907   0.6256898   0.1904529), wk =   0.0740741
        k(   24) = (   0.2500907   0.6256898   0.3174215), wk =   0.0740741
        k(   25) = (   0.2500907  -0.3369099   0.0634843), wk =   0.0740741
        k(   26) = (   0.2500907  -0.3369099   0.1904529), wk =   0.0740741
        k(   27) = (   0.2500907  -0.3369099   0.3174215), wk =   0.0740741
        k(   28) = (   0.2500907  -0.1443899   0.0634843), wk =   0.0370370
        k(   29) = (   0.2500907  -0.1443899   0.1904529), wk =   0.0370370
        k(   30) = (   0.2500907  -0.1443899   0.3174215), wk =   0.0370370
        k(   31) = (   0.4168179   0.7219497   0.0634843), wk =   0.0370370
        k(   32) = (   0.4168179   0.7219497   0.1904529), wk =   0.0370370
        k(   33) = (   0.4168179   0.7219497   0.3174215), wk =   0.0370370
        k(   34) = (   0.4168179  -0.2406499   0.0634843), wk =   0.0370370
        k(   35) = (   0.4168179  -0.2406499   0.1904529), wk =   0.0370370
        k(   36) = (   0.4168179  -0.2406499   0.3174215), wk =   0.0370370
     extrapolated charge   24.01995, renormalised to   24.00000

     total cpu time spent up to now is      220.7 secs

     per-process dynamical memory:    23.0 Mb

     Self-consistent Calculation

     iteration #  1     ecut=    80.00 Ry     beta=0.30
     Davidson diagonalization with overlap
     ethr =  1.00E-06,  avg # of iterations =  2.0

     Threshold (ethr) on eigenvalues was too large:
     Diagonalizing with lowered threshold

     Davidson diagonalization with overlap
     ethr =  8.47E-08,  avg # of iterations =  1.6

     total cpu time spent up to now is      239.9 secs

     total energy              =    -151.47424916 Ry
     Harris-Foulkes estimate   =    -151.45227164 Ry
     estimated scf accuracy    <       0.00002143 Ry

     iteration #  2     ecut=    80.00 Ry     beta=0.30
     Davidson diagonalization with overlap
     ethr =  8.93E-08,  avg # of iterations =  2.0

     total cpu time spent up to now is      251.5 secs

     total energy              =    -151.47426264 Ry
     Harris-Foulkes estimate   =    -151.47426285 Ry
     estimated scf accuracy    <       0.00000112 Ry

     iteration #  3     ecut=    80.00 Ry     beta=0.30
     Davidson diagonalization with overlap
     ethr =  4.68E-09,  avg # of iterations =  1.1

     total cpu time spent up to now is      259.6 secs

     End of self-consistent calculation

          k = 0.0834 0.1444 0.0635 (  4433 PWs)   bands (ev):

   -31.6108 -31.4379 -13.5154 -13.0135 -12.9980 -12.8591 -12.7743 -12.7715
     1.5563   4.8177   7.1494   8.3161

          k = 0.0834 0.1444 0.1905 (  4435 PWs)   bands (ev):

   -31.5879 -31.4613 -13.4494 -12.9998 -12.9696 -12.9564 -12.8040 -12.7741
     1.9385   4.3070   7.4565   8.3985

          k = 0.0834 0.1444 0.3174 (  4455 PWs)   bands (ev):

   -31.5488 -31.5021 -13.3242 -13.1601 -12.9139 -12.8978 -12.8552 -12.8233
     2.6279   3.4862   7.9713   8.3525

          k = 0.0834 0.3369 0.0635 (  4441 PWs)   bands (ev):

   -31.5714 -31.4491 -13.4063 -13.1448 -13.0672 -12.9928 -12.8479 -12.7806
     2.6481   5.2163   6.5888   6.9323

          k = 0.0834 0.3369 0.1905 (  4446 PWs)   bands (ev):

   -31.5550 -31.4656 -13.4336 -13.1851 -13.0264 -12.9973 -12.8214 -12.7871
     2.9782   4.9522   6.6974   6.8653

          k = 0.0834 0.3369 0.3174 (  4452 PWs)   bands (ev):

   -31.5267 -31.4941 -13.4104 -13.3193 -12.9630 -12.8931 -12.8759 -12.8005
     3.5764   4.3147   6.8599   6.9390

          k = 0.0834 0.5294 0.0635 (  4457 PWs)   bands (ev):

   -31.5314 -31.4690 -13.3390 -13.1939 -13.1148 -13.0826 -12.9416 -12.7864
     4.1375   4.8926   5.5725   6.7764

          k = 0.0834 0.5294 0.1905 (  4454 PWs)   bands (ev):

   -31.5229 -31.4767 -13.4465 -13.2905 -13.0801 -12.9827 -12.8484 -12.8152
     4.3923   5.1346   5.6396   6.3267

          k = 0.0834 0.5294 0.3174 (  4444 PWs)   bands (ev):

   -31.5078 -31.4906 -13.4777 -13.4211 -12.9990 -12.9119 -12.8592 -12.7996
     4.8449   5.3411   5.5957   5.8932

          k = 0.0834-0.4332 0.0635 (  4446 PWs)   bands (ev):

   -31.5485 -31.4589 -13.3534 -13.1987 -13.0873 -13.0545 -12.9008 -12.7841
     3.3786   5.2991   5.8554   6.8309

          k = 0.0834-0.4332 0.1905 (  4453 PWs)   bands (ev):

   -31.5366 -31.4708 -13.4379 -13.2555 -13.0604 -12.9930 -12.8346 -12.8048
     3.6739   5.2771   5.9730   6.5370

          k = 0.0834-0.4332 0.3174 (  4446 PWs)   bands (ev):

   -31.5157 -31.4908 -13.4526 -13.3850 -12.9859 -12.9041 -12.8673 -12.7985
     4.2051   4.8422   6.2011   6.3902

          k = 0.0834-0.2406 0.0635 (  4445 PWs)   bands (ev):

   -31.5936 -31.4425 -13.4673 -13.0695 -13.0358 -12.9246 -12.8018 -12.7771
     2.0188   5.0176   7.0475   7.4438

          k = 0.0834-0.2406 0.1905 (  4435 PWs)   bands (ev):

   -31.5733 -31.4623 -13.4391 -13.0921 -12.9907 -12.9853 -12.8114 -12.7740
     2.3787   4.5967   7.1586   7.5661

          k = 0.0834-0.2406 0.3174 (  4447 PWs)   bands (ev):

   -31.5386 -31.4979 -13.3634 -13.2378 -12.9365 -12.8937 -12.8686 -12.8089
     3.0305   3.8418   7.4512   7.6339

          k = 0.0834-0.0481 0.0635 (  4430 PWs)   bands (ev):

   -31.6201 -31.4361 -13.5415 -12.9844 -12.9752 -12.8123 -12.7734 -12.7603
     1.3111   4.6956   7.2063   8.9725

          k = 0.0834-0.0481 0.1905 (  4422 PWs)   bands (ev):

   -31.5954 -31.4607 -13.4569 -12.9539 -12.9484 -12.9273 -12.8006 -12.7847
     1.7054   4.1459   7.6297   9.0218

          k = 0.0834-0.0481 0.3174 (  4450 PWs)   bands (ev):

   -31.5540 -31.5046 -13.3024 -13.1101 -12.9017 -12.8981 -12.8476 -12.8363
     2.4144   3.2957   8.3066   8.8663

          k = 0.2501 0.4332 0.0635 (  4434 PWs)   bands (ev):

   -31.5310 -31.4679 -13.2963 -13.2335 -13.0953 -13.0805 -12.9303 -12.8252
     3.8385   5.3418   5.5903   6.7931

          k = 0.2501 0.4332 0.1905 (  4442 PWs)   bands (ev):

   -31.5227 -31.4762 -13.4015 -13.2949 -13.1308 -12.9489 -12.8729 -12.8178
     4.1137   5.4132   5.7879   6.4282

          k = 0.2501 0.4332 0.3174 (  4447 PWs)   bands (ev):

   -31.5079 -31.4907 -13.4427 -13.4010 -13.0596 -12.9646 -12.8251 -12.7792
     4.6020   5.1570   6.0506   6.1960

          k = 0.2501 0.6257 0.0635 (  4440 PWs)   bands (ev):

   -31.5133 -31.4803 -13.2736 -13.2267 -13.1406 -13.0650 -12.9758 -12.8385
     4.4496   5.0799   5.3639   6.7673

          k = 0.2501 0.6257 0.1905 (  4450 PWs)   bands (ev):

   -31.5089 -31.4847 -13.3838 -13.3151 -13.1770 -12.9164 -12.8922 -12.8399
     4.6866   5.3070   5.5347   6.3744

          k = 0.2501 0.6257 0.3174 (  4441 PWs)   bands (ev):

   -31.5005 -31.4919 -13.4442 -13.4190 -13.0914 -12.9873 -12.8065 -12.7801
     5.1034   5.5005   5.7052   5.9149

          k = 0.2501-0.3369 0.0635 (  4442 PWs)   bands (ev):

   -31.5523 -31.4570 -13.3540 -13.1871 -13.1024 -13.0275 -12.8853 -12.8024
     3.2057   5.3172   6.0676   6.8504

          k = 0.2501-0.3369 0.1905 (  4438 PWs)   bands (ev):

   -31.5394 -31.4692 -13.4217 -13.2475 -13.0733 -12.9791 -12.8478 -12.7974
     3.5106   5.2157   6.2348   6.5982

          k = 0.2501-0.3369 0.3174 (  4444 PWs)   bands (ev):

   -31.5172 -31.4914 -13.4323 -13.3664 -13.0108 -12.9279 -12.8512 -12.7862
     4.0600   4.7225   6.4476   6.5369

          k = 0.2501-0.1444 0.0635 (  4444 PWs)   bands (ev):

   -31.5858 -31.4447 -13.4460 -13.1081 -13.0280 -12.9631 -12.8191 -12.7718
     2.2365   5.0957   6.9932   7.1121

          k = 0.2501-0.1444 0.1905 (  4445 PWs)   bands (ev):

   -31.5670 -31.4635 -13.4380 -13.1262 -13.0032 -12.9942 -12.8066 -12.7824
     2.5859   4.7247   7.0107   7.2557

          k = 0.2501-0.1444 0.3174 (  4452 PWs)   bands (ev):

   -31.5344 -31.4965 -13.3831 -13.2706 -12.9352 -12.8978 -12.8666 -12.8117
     3.2191   4.0063   7.2238   7.3528

          k = 0.4168 0.7219 0.0635 (  4450 PWs)   bands (ev):

   -31.5213 -31.4750 -13.3128 -13.1965 -13.1340 -13.0782 -12.9622 -12.8134
     4.5088   4.7437   5.5099   6.7675

          k = 0.4168 0.7219 0.1905 (  4439 PWs)   bands (ev):

   -31.5144 -31.4806 -13.4206 -13.3008 -13.1368 -12.9415 -12.8776 -12.8242
     4.7246   5.0183   5.6382   6.3300

          k = 0.4168 0.7219 0.3174 (  4442 PWs)   bands (ev):

   -31.5034 -31.4912 -13.4642 -13.4215 -13.0522 -12.9553 -12.8275 -12.7853
     5.1293   5.3932   5.6922   5.7469

          k = 0.4168-0.2406 0.0635 (  4457 PWs)   bands (ev):

   -31.5416 -31.4629 -13.3506 -13.2004 -13.0928 -13.0755 -12.9204 -12.7751
     3.7051   5.1668   5.6443   6.8004

          k = 0.4168-0.2406 0.1905 (  4465 PWs)   bands (ev):

   -31.5308 -31.4737 -13.4511 -13.2739 -13.0361 -13.0182 -12.8255 -12.8162
     3.9833   5.3221   5.6782   6.4186

          k = 0.4168-0.2406 0.3174 (  4445 PWs)   bands (ev):

   -31.5120 -31.4908 -13.4729 -13.4081 -12.9672 -12.8868 -12.8818 -12.8103
     4.4812   5.0677   5.8697   6.1417

!    total energy              =    -151.47426219 Ry
     Harris-Foulkes estimate   =    -151.47426267 Ry
     estimated scf accuracy    <       0.00000067 Ry

     The total energy is the sum of the following terms:

     one-electron contribution =     -44.03487384 Ry
     hartree contribution      =      28.60152885 Ry
     xc contribution           =     -23.69741080 Ry
     ewald contribution        =    -112.34350640 Ry

     convergence has been achieved in   3 iterations

     Forces acting on atoms (Ry/au):

     atom    1 type  2   force =    -0.00000000   -0.00000000   -0.00000000
     atom    2 type  2   force =    -0.00000000   -0.00000000   -0.00000000
     atom    3 type  1   force =     0.00000000    0.00000000    0.00000000
     atom    4 type  1   force =    -0.00000000   -0.00000000    0.00000000
     atom    5 type  1   force =     0.00000000    0.00000000   -0.00000000
     atom    6 type  1   force =     0.00000000    0.00000000   -0.00000000

     Total force =     0.000000     Total SCF correction =     0.000000


     entering subroutine stress ...

          total   stress  (Ry/bohr**3)                   (kbar)     P=  200.10
   0.00133996  -0.00000000   0.00000000        197.11     -0.00      0.00
  -0.00000000   0.00133996   0.00000000         -0.00    197.11      0.00
   0.00000000   0.00000000   0.00140089          0.00      0.00    206.08


     number of scf cycles    =   2
     number of bfgs steps    =   1

     enthalpy old            =    -150.9735590793 Ry
     enthalpy new            =    -150.9735989763 Ry

     CASE: enthalpy_new < enthalpy_old

     new trust radius        =       0.0099137034 bohr
     new conv_thr            =       0.0000000100 Ry

     new unit-cell volume =    368.38059 a.u.^3 (    54.58837 Ang^3 )

CELL_PARAMETERS (alat=  6.86950000)
   0.998525090  -0.000000000   0.000000000
  -0.499262545   0.864748094   0.000000000
   0.000000000   0.000000000   1.316051132

ATOMIC_POSITIONS (crystal)
Ca       0.333333333   0.666666667   0.250000000
Ca       0.666666667   0.333333333   0.750000000
H        0.333333333   0.666666667   0.750000000
H        0.666666667   0.333333333   0.250000000
H       -0.000000000   0.000000000  -0.000000000
H        0.000000000   0.000000000   0.500000000



     Writing output data file CaH2_ambient.save
     NEW-OLD atomic charge density approx. for the potential
     NEW k-points:
        k(    1) = (   0.0834564   0.1445508   0.0633207), wk =   0.0370370
        k(    2) = (   0.0834564   0.1445508   0.1899622), wk =   0.0370370
        k(    3) = (   0.0834564   0.1445508   0.3166037), wk =   0.0370370
        k(    4) = (   0.0834564   0.3372851   0.0633207), wk =   0.0740741
        k(    5) = (   0.0834564   0.3372851   0.1899622), wk =   0.0740741
        k(    6) = (   0.0834564   0.3372851   0.3166037), wk =   0.0740741
        k(    7) = (   0.0834564   0.5300195   0.0633207), wk =   0.0740741
        k(    8) = (   0.0834564   0.5300195   0.1899622), wk =   0.0740741
        k(    9) = (   0.0834564   0.5300195   0.3166037), wk =   0.0740741
        k(   10) = (   0.0834564  -0.4336523   0.0633207), wk =   0.0740741
        k(   11) = (   0.0834564  -0.4336523   0.1899622), wk =   0.0740741
        k(   12) = (   0.0834564  -0.4336523   0.3166037), wk =   0.0740741
        k(   13) = (   0.0834564  -0.2409179   0.0633207), wk =   0.0740741
        k(   14) = (   0.0834564  -0.2409179   0.1899622), wk =   0.0740741
        k(   15) = (   0.0834564  -0.2409179   0.3166037), wk =   0.0740741
        k(   16) = (   0.0834564  -0.0481836   0.0633207), wk =   0.0370370
        k(   17) = (   0.0834564  -0.0481836   0.1899622), wk =   0.0370370
        k(   18) = (   0.0834564  -0.0481836   0.3166037), wk =   0.0370370
        k(   19) = (   0.2503693   0.4336523   0.0633207), wk =   0.0370370
        k(   20) = (   0.2503693   0.4336523   0.1899622), wk =   0.0370370
        k(   21) = (   0.2503693   0.4336523   0.3166037), wk =   0.0370370
        k(   22) = (   0.2503693   0.6263867   0.0633207), wk =   0.0740741
        k(   23) = (   0.2503693   0.6263867   0.1899622), wk =   0.0740741
        k(   24) = (   0.2503693   0.6263867   0.3166037), wk =   0.0740741
        k(   25) = (   0.2503693  -0.3372851   0.0633207), wk =   0.0740741
        k(   26) = (   0.2503693  -0.3372851   0.1899622), wk =   0.0740741
        k(   27) = (   0.2503693  -0.3372851   0.3166037), wk =   0.0740741
        k(   28) = (   0.2503693  -0.1445508   0.0633207), wk =   0.0370370
        k(   29) = (   0.2503693  -0.1445508   0.1899622), wk =   0.0370370
        k(   30) = (   0.2503693  -0.1445508   0.3166037), wk =   0.0370370
        k(   31) = (   0.4172821   0.7227538   0.0633207), wk =   0.0370370
        k(   32) = (   0.4172821   0.7227538   0.1899622), wk =   0.0370370
        k(   33) = (   0.4172821   0.7227538   0.3166037), wk =   0.0370370
        k(   34) = (   0.4172821  -0.2409179   0.0633207), wk =   0.0370370
        k(   35) = (   0.4172821  -0.2409179   0.1899622), wk =   0.0370370
        k(   36) = (   0.4172821  -0.2409179   0.3166037), wk =   0.0370370
     extrapolated charge   24.00707, renormalised to   24.00000

     total cpu time spent up to now is      344.7 secs

     per-process dynamical memory:    23.0 Mb

     Self-consistent Calculation

     iteration #  1     ecut=    80.00 Ry     beta=0.30
     Davidson diagonalization with overlap
     ethr =  1.00E-06,  avg # of iterations =  2.2

     Threshold (ethr) on eigenvalues was too large:
     Diagonalizing with lowered threshold

     Davidson diagonalization with overlap
     ethr =  8.96E-09,  avg # of iterations =  2.8

     total cpu time spent up to now is      366.0 secs

     total energy              =    -151.47447297 Ry
     Harris-Foulkes estimate   =    -151.46668401 Ry
     estimated scf accuracy    <       0.00000232 Ry

     iteration #  2     ecut=    80.00 Ry     beta=0.30
     Davidson diagonalization with overlap
     ethr =  9.66E-09,  avg # of iterations =  2.0

     total cpu time spent up to now is      377.6 secs

     total energy              =    -151.47447468 Ry
     Harris-Foulkes estimate   =    -151.47447465 Ry
     estimated scf accuracy    <       0.00000042 Ry

     iteration #  3     ecut=    80.00 Ry     beta=0.30
     Davidson diagonalization with overlap
     ethr =  1.74E-09,  avg # of iterations =  1.0

     total cpu time spent up to now is      385.8 secs

     total energy              =    -151.47447473 Ry
     Harris-Foulkes estimate   =    -151.47447469 Ry
     estimated scf accuracy    <       0.00000024 Ry

     iteration #  4     ecut=    80.00 Ry     beta=0.30
     Davidson diagonalization with overlap
     ethr =  1.02E-09,  avg # of iterations =  2.0

     total cpu time spent up to now is      394.9 secs

     End of self-consistent calculation

          k = 0.0835 0.1446 0.0633 (  4433 PWs)   bands (ev):

   -31.6140 -31.4428 -13.5186 -13.0150 -12.9989 -12.8633 -12.7782 -12.7771
     1.5546   4.8157   7.1207   8.3278

          k = 0.0835 0.1446 0.1900 (  4435 PWs)   bands (ev):

   -31.5913 -31.4660 -13.4523 -13.0030 -12.9718 -12.9582 -12.8076 -12.7792
     1.9345   4.2980   7.4395   8.4054

          k = 0.0835 0.1446 0.3166 (  4455 PWs)   bands (ev):

   -31.5527 -31.5064 -13.3270 -13.1632 -12.9159 -12.9012 -12.8580 -12.8277
     2.6203   3.4758   7.9625   8.3513

          k = 0.0835 0.3373 0.0633 (  4441 PWs)   bands (ev):

   -31.5746 -31.4536 -13.4094 -13.1479 -13.0692 -12.9967 -12.8536 -12.7852
     2.6492   5.2193   6.5962   6.9067

          k = 0.0835 0.3373 0.1900 (  4446 PWs)   bands (ev):

   -31.5584 -31.4700 -13.4356 -13.1883 -13.0289 -13.0010 -12.8257 -12.7932
     2.9770   4.9471   6.6967   6.8573

          k = 0.0835 0.3373 0.3166 (  4452 PWs)   bands (ev):

   -31.5304 -31.4982 -13.4120 -13.3214 -12.9655 -12.8976 -12.8803 -12.8068
     3.5715   4.3068   6.8567   6.9365

          k = 0.0835 0.5300 0.0633 (  4457 PWs)   bands (ev):

   -31.5348 -31.4731 -13.3421 -13.1978 -13.1196 -13.0841 -12.9472 -12.7914
     4.1417   4.8989   5.5777   6.7519

          k = 0.0835 0.5300 0.1900 (  4454 PWs)   bands (ev):

   -31.5264 -31.4807 -13.4485 -13.2936 -13.0824 -12.9876 -12.8543 -12.8205
     4.3940   5.1382   5.6404   6.3102

          k = 0.0835 0.5300 0.3166 (  4444 PWs)   bands (ev):

   -31.5115 -31.4945 -13.4793 -13.4231 -13.0017 -12.9157 -12.8656 -12.8065
     4.8426   5.3377   5.5925   5.8879

          k = 0.0835-0.4337 0.0633 (  4446 PWs)   bands (ev):

   -31.5518 -31.4632 -13.3563 -13.2025 -13.0905 -13.0575 -12.9064 -12.7890
     3.3814   5.3049   5.8610   6.8060

          k = 0.0835-0.4337 0.1900 (  4453 PWs)   bands (ev):

   -31.5401 -31.4749 -13.4398 -13.2586 -13.0628 -12.9976 -12.8397 -12.8106
     3.6742   5.2758   5.9749   6.5240

          k = 0.0835-0.4337 0.3166 (  4446 PWs)   bands (ev):

   -31.5194 -31.4948 -13.4541 -13.3870 -12.9885 -12.9080 -12.8732 -12.8052
     4.2016   4.8359   6.1997   6.3857

          k = 0.0835-0.2409 0.0633 (  4445 PWs)   bands (ev):

   -31.5968 -31.4473 -13.4704 -13.0717 -13.0372 -12.9287 -12.8074 -12.7813
     2.0183   5.0178   7.0202   7.4534

          k = 0.0835-0.2409 0.1900 (  4435 PWs)   bands (ev):

   -31.5767 -31.4669 -13.4415 -13.0953 -12.9940 -12.9870 -12.8153 -12.7798
     2.3760   4.5893   7.1439   7.5719

          k = 0.0835-0.2409 0.3166 (  4447 PWs)   bands (ev):

   -31.5424 -31.5021 -13.3654 -13.2402 -12.9388 -12.8983 -12.8716 -12.8144
     3.0241   3.8325   7.4447   7.6334

          k = 0.0835-0.0482 0.0633 (  4430 PWs)   bands (ev):

   -31.6233 -31.4412 -13.5447 -12.9855 -12.9760 -12.8166 -12.7772 -12.7658
     1.3089   4.6923   7.1768   8.9858

          k = 0.0835-0.0482 0.1900 (  4422 PWs)   bands (ev):

   -31.5989 -31.4656 -13.4601 -12.9556 -12.9496 -12.9315 -12.8040 -12.7891
     1.7007   4.1361   7.6109   9.0293

          k = 0.0835-0.0482 0.3166 (  4450 PWs)   bands (ev):

   -31.5579 -31.5090 -13.3057 -13.1138 -12.9036 -12.9005 -12.8503 -12.8398
     2.4062   3.2846   8.2955   8.8636

          k = 0.2504 0.4337 0.0633 (  4434 PWs)   bands (ev):

   -31.5344 -31.4720 -13.2993 -13.2360 -13.0997 -13.0839 -12.9356 -12.8308
     3.8423   5.3485   5.5968   6.7691

          k = 0.2504 0.4337 0.1900 (  4442 PWs)   bands (ev):

   -31.5262 -31.4802 -13.4034 -13.2976 -13.1328 -12.9547 -12.8778 -12.8241
     4.1150   5.4144   5.7915   6.4128

          k = 0.2504 0.4337 0.3166 (  4447 PWs)   bands (ev):

   -31.5116 -31.4946 -13.4440 -13.4026 -13.0626 -12.9688 -12.8315 -12.7860
     4.5994   5.1520   6.0499   6.1911

          k = 0.2504 0.6264 0.0633 (  4440 PWs)   bands (ev):

   -31.5168 -31.4842 -13.2762 -13.2293 -13.1442 -13.0695 -12.9811 -12.8444
     4.4542   5.0867   5.3708   6.7441

          k = 0.2504 0.6264 0.1900 (  4450 PWs)   bands (ev):

   -31.5125 -31.4885 -13.3857 -13.3175 -13.1792 -12.9224 -12.8976 -12.8462
     4.6887   5.3109   5.5382   6.3576

          k = 0.2504 0.6264 0.3166 (  4441 PWs)   bands (ev):

   -31.5042 -31.4957 -13.4455 -13.4204 -13.0946 -12.9917 -12.8132 -12.7870
     5.1014   5.4984   5.7041   5.9085

          k = 0.2504-0.3373 0.0633 (  4442 PWs)   bands (ev):

   -31.5556 -31.4613 -13.3569 -13.1898 -13.1060 -13.0309 -12.8908 -12.8075
     3.2081   5.3222   6.0746   6.8255

          k = 0.2504-0.3373 0.1900 (  4438 PWs)   bands (ev):

   -31.5428 -31.4734 -13.4236 -13.2505 -13.0752 -12.9842 -12.8524 -12.8037
     3.5106   5.2132   6.2384   6.5850

          k = 0.2504-0.3373 0.3166 (  4444 PWs)   bands (ev):

   -31.5209 -31.4953 -13.4337 -13.3683 -13.0135 -12.9319 -12.8571 -12.7927
     4.0563   4.7159   6.4466   6.5325

          k = 0.2504-0.1446 0.0633 (  4444 PWs)   bands (ev):

   -31.5890 -31.4493 -13.4490 -13.1109 -13.0288 -12.9678 -12.8248 -12.7761
     2.2366   5.0969   6.9687   7.1187

          k = 0.2504-0.1446 0.1900 (  4445 PWs)   bands (ev):

   -31.5704 -31.4680 -13.4403 -13.1295 -13.0072 -12.9955 -12.8105 -12.7885
     2.5837   4.7181   6.9982   7.2595

          k = 0.2504-0.1446 0.3166 (  4452 PWs)   bands (ev):

   -31.5381 -31.5007 -13.3849 -13.2728 -12.9373 -12.9030 -12.8696 -12.8176
     3.2132   3.9975   7.2184   7.3519

          k = 0.4173 0.7228 0.0633 (  4450 PWs)   bands (ev):

   -31.5247 -31.4790 -13.3159 -13.1993 -13.1383 -13.0814 -12.9678 -12.8188
     4.5131   4.7505   5.5161   6.7437

          k = 0.4173 0.7228 0.1900 (  4439 PWs)   bands (ev):

   -31.5179 -31.4845 -13.4227 -13.3035 -13.1391 -12.9470 -12.8833 -12.8302
     4.7266   5.0221   5.6410   6.3127

          k = 0.4173 0.7228 0.3166 (  4442 PWs)   bands (ev):

   -31.5071 -31.4950 -13.4656 -13.4232 -13.0553 -12.9595 -12.8340 -12.7922
     5.1271   5.3932   5.6910   5.7375

          k = 0.4173-0.2409 0.0633 (  4457 PWs)   bands (ev):

   -31.5450 -31.4671 -13.3536 -13.2048 -13.0979 -13.0763 -12.9261 -12.7799
     3.7084   5.1735   5.6488   6.7756

          k = 0.4173-0.2409 0.1900 (  4465 PWs)   bands (ev):

   -31.5343 -31.4778 -13.4530 -13.2772 -13.0375 -13.0239 -12.8323 -12.8205
     3.9843   5.3244   5.6777   6.4042

          k = 0.4173-0.2409 0.3166 (  4445 PWs)   bands (ev):

   -31.5157 -31.4947 -13.4745 -13.4101 -12.9695 -12.8901 -12.8885 -12.8174
     4.4782   5.0620   5.8680   6.1368

!    total energy              =    -151.47447475 Ry
     Harris-Foulkes estimate   =    -151.47447475 Ry
     estimated scf accuracy    <          3.2E-09 Ry

     The total energy is the sum of the following terms:

     one-electron contribution =     -44.04920672 Ry
     hartree contribution      =      28.60881678 Ry
     xc contribution           =     -23.69795494 Ry
     ewald contribution        =    -112.33612986 Ry

     convergence has been achieved in   4 iterations

     Forces acting on atoms (Ry/au):

     atom    1 type  2   force =     0.00000000    0.00000000    0.00000000
     atom    2 type  2   force =    -0.00000000   -0.00000000   -0.00000000
     atom    3 type  1   force =     0.00000000   -0.00000000   -0.00000000
     atom    4 type  1   force =    -0.00000000   -0.00000000    0.00000000
     atom    5 type  1   force =     0.00000000    0.00000000    0.00000000
     atom    6 type  1   force =    -0.00000000   -0.00000000    0.00000000

     Total force =     0.000000     Total SCF correction =     0.000000


     entering subroutine stress ...

          total   stress  (Ry/bohr**3)                   (kbar)     P=  201.25
   0.00136255   0.00000000   0.00000000        200.44      0.00      0.00
   0.00000000   0.00136255   0.00000000          0.00    200.44      0.00
   0.00000000   0.00000000   0.00137909          0.00      0.00    202.87


     number of scf cycles    =   3
     number of bfgs steps    =   2

     enthalpy old            =    -150.9735989763 Ry
     enthalpy new            =    -150.9736345880 Ry

     CASE: enthalpy_new < enthalpy_old

     new trust radius        =       0.0055411978 bohr
     new conv_thr            =       0.0000000100 Ry

     new unit-cell volume =    368.71550 a.u.^3 (    54.63800 Ang^3 )

CELL_PARAMETERS (alat=  6.86950000)
   0.998258642  -0.000000000   0.000000000
  -0.499129321   0.864517344   0.000000000
   0.000000000   0.000000000   1.317950889

ATOMIC_POSITIONS (crystal)
Ca       0.333333333   0.666666667   0.250000000
Ca       0.666666667   0.333333333   0.750000000
H        0.333333333   0.666666667   0.750000000
H        0.666666667   0.333333333   0.250000000
H       -0.000000000   0.000000000  -0.000000000
H       -0.000000000   0.000000000   0.500000000



     Writing output data file CaH2_ambient.save
     NEW-OLD atomic charge density approx. for the potential
     NEW k-points:
        k(    1) = (   0.0834787   0.1445893   0.0632295), wk =   0.0370370
        k(    2) = (   0.0834787   0.1445893   0.1896884), wk =   0.0370370
        k(    3) = (   0.0834787   0.1445893   0.3161473), wk =   0.0370370
        k(    4) = (   0.0834787   0.3373751   0.0632295), wk =   0.0740741
        k(    5) = (   0.0834787   0.3373751   0.1896884), wk =   0.0740741
        k(    6) = (   0.0834787   0.3373751   0.3161473), wk =   0.0740741
        k(    7) = (   0.0834787   0.5301609   0.0632295), wk =   0.0740741
        k(    8) = (   0.0834787   0.5301609   0.1896884), wk =   0.0740741
        k(    9) = (   0.0834787   0.5301609   0.3161473), wk =   0.0740741
        k(   10) = (   0.0834787  -0.4337680   0.0632295), wk =   0.0740741
        k(   11) = (   0.0834787  -0.4337680   0.1896884), wk =   0.0740741
        k(   12) = (   0.0834787  -0.4337680   0.3161473), wk =   0.0740741
        k(   13) = (   0.0834787  -0.2409822   0.0632295), wk =   0.0740741
        k(   14) = (   0.0834787  -0.2409822   0.1896884), wk =   0.0740741
        k(   15) = (   0.0834787  -0.2409822   0.3161473), wk =   0.0740741
        k(   16) = (   0.0834787  -0.0481964   0.0632295), wk =   0.0370370
        k(   17) = (   0.0834787  -0.0481964   0.1896884), wk =   0.0370370
        k(   18) = (   0.0834787  -0.0481964   0.3161473), wk =   0.0370370
        k(   19) = (   0.2504361   0.4337680   0.0632295), wk =   0.0370370
        k(   20) = (   0.2504361   0.4337680   0.1896884), wk =   0.0370370
        k(   21) = (   0.2504361   0.4337680   0.3161473), wk =   0.0370370
        k(   22) = (   0.2504361   0.6265538   0.0632295), wk =   0.0740741
        k(   23) = (   0.2504361   0.6265538   0.1896884), wk =   0.0740741
        k(   24) = (   0.2504361   0.6265538   0.3161473), wk =   0.0740741
        k(   25) = (   0.2504361  -0.3373751   0.0632295), wk =   0.0740741
        k(   26) = (   0.2504361  -0.3373751   0.1896884), wk =   0.0740741
        k(   27) = (   0.2504361  -0.3373751   0.3161473), wk =   0.0740741
        k(   28) = (   0.2504361  -0.1445893   0.0632295), wk =   0.0370370
        k(   29) = (   0.2504361  -0.1445893   0.1896884), wk =   0.0370370
        k(   30) = (   0.2504361  -0.1445893   0.3161473), wk =   0.0370370
        k(   31) = (   0.4173935   0.7229467   0.0632295), wk =   0.0370370
        k(   32) = (   0.4173935   0.7229467   0.1896884), wk =   0.0370370
        k(   33) = (   0.4173935   0.7229467   0.3161473), wk =   0.0370370
        k(   34) = (   0.4173935  -0.2409822   0.0632295), wk =   0.0370370
        k(   35) = (   0.4173935  -0.2409822   0.1896884), wk =   0.0370370
        k(   36) = (   0.4173935  -0.2409822   0.3161473), wk =   0.0370370
     extrapolated charge   24.01817, renormalised to   24.00000

     total cpu time spent up to now is      480.5 secs

     per-process dynamical memory:    23.0 Mb

     Self-consistent Calculation

     iteration #  1     ecut=    80.00 Ry     beta=0.30
     Davidson diagonalization with overlap
     ethr =  1.00E-06,  avg # of iterations =  2.0

     Threshold (ethr) on eigenvalues was too large:
     Diagonalizing with lowered threshold

     Davidson diagonalization with overlap
     ethr =  6.94E-08,  avg # of iterations =  1.8

     total cpu time spent up to now is      499.8 secs

     total energy              =    -151.47492411 Ry
     Harris-Foulkes estimate   =    -151.45487861 Ry
     estimated scf accuracy    <       0.00001792 Ry

     iteration #  2     ecut=    80.00 Ry     beta=0.30
     Davidson diagonalization with overlap
     ethr =  7.47E-08,  avg # of iterations =  2.0

     total cpu time spent up to now is      511.6 secs

     total energy              =    -151.47493530 Ry
     Harris-Foulkes estimate   =    -151.47493548 Ry
     estimated scf accuracy    <       0.00000097 Ry

     iteration #  3     ecut=    80.00 Ry     beta=0.30
     Davidson diagonalization with overlap
     ethr =  4.03E-09,  avg # of iterations =  1.1

     total cpu time spent up to now is      519.9 secs

     total energy              =    -151.47493498 Ry
     Harris-Foulkes estimate   =    -151.47493532 Ry
     estimated scf accuracy    <       0.00000058 Ry

     iteration #  4     ecut=    80.00 Ry     beta=0.30
     Davidson diagonalization with overlap
     ethr =  2.40E-09,  avg # of iterations =  2.1

     total cpu time spent up to now is      530.0 secs

     total energy              =    -151.47493509 Ry
     Harris-Foulkes estimate   =    -151.47493509 Ry
     estimated scf accuracy    <       0.00000002 Ry

     iteration #  5     ecut=    80.00 Ry     beta=0.30
     Davidson diagonalization with overlap
     ethr =  9.59E-11,  avg # of iterations =  1.9

     total cpu time spent up to now is      538.5 secs

     total energy              =    -151.47493509 Ry
     Harris-Foulkes estimate   =    -151.47493509 Ry
     estimated scf accuracy    <       0.00000001 Ry

     iteration #  6     ecut=    80.00 Ry     beta=0.30
     Davidson diagonalization with overlap
     ethr =  4.18E-11,  avg # of iterations =  2.0

     total cpu time spent up to now is      547.6 secs

     End of self-consistent calculation

          k = 0.0835 0.1446 0.0632 (  4433 PWs)   bands (ev):

   -31.6233 -31.4534 -13.5272 -13.0238 -13.0075 -12.8737 -12.7887 -12.7884
     1.5476   4.8078   7.0987   8.3244

          k = 0.0835 0.1446 0.1897 (  4435 PWs)   bands (ev):

   -31.6008 -31.4764 -13.4609 -13.0127 -12.9811 -12.9673 -12.8178 -12.7903
     1.9261   4.2865   7.4234   8.3998

          k = 0.0835 0.1446 0.3161 (  4455 PWs)   bands (ev):

   -31.5624 -31.5165 -13.3358 -13.1725 -12.9252 -12.9111 -12.8678 -12.8383
     2.6098   3.4636   7.9501   8.3420

          k = 0.0835 0.3374 0.0632 (  4441 PWs)   bands (ev):

   -31.5841 -31.4640 -13.4181 -13.1571 -13.0782 -13.0066 -12.8647 -12.7959
     2.6426   5.2132   6.5919   6.8870

          k = 0.0835 0.3374 0.1897 (  4446 PWs)   bands (ev):

   -31.5680 -31.4802 -13.4438 -13.1976 -13.0382 -13.0108 -12.8362 -12.8047
     2.9692   4.9370   6.6883   6.8463

          k = 0.0835 0.3374 0.3161 (  4452 PWs)   bands (ev):

   -31.5402 -31.5082 -13.4201 -13.3299 -12.9749 -12.9081 -12.8907 -12.8183
     3.5617   4.2954   6.8474   6.9275

          k = 0.0835 0.5302 0.0632 (  4457 PWs)   bands (ev):

   -31.5444 -31.4832 -13.3510 -13.2074 -13.1297 -13.0928 -12.9582 -12.8023
     4.1359   4.8939   5.5731   6.7333

          k = 0.0835 0.5302 0.1897 (  4454 PWs)   bands (ev):

   -31.5361 -31.4907 -13.4567 -13.3026 -13.0915 -12.9981 -12.8656 -12.8315
     4.3870   5.1317   5.6333   6.2953

          k = 0.0835 0.5302 0.3161 (  4444 PWs)   bands (ev):

   -31.5213 -31.5044 -13.4872 -13.4312 -13.0111 -12.9258 -12.8770 -12.8183
     4.8336   5.3276   5.5837   5.8778

          k = 0.0835-0.4338 0.0632 (  4446 PWs)   bands (ev):

   -31.5614 -31.4734 -13.3652 -13.2120 -13.1001 -13.0669 -12.9174 -12.7998
     3.3752   5.2998   5.8564   6.7869

          k = 0.0835-0.4338 0.1897 (  4453 PWs)   bands (ev):

   -31.5497 -31.4851 -13.4480 -13.2677 -13.0719 -13.0079 -12.8506 -12.8219
     3.6668   5.2671   5.9683   6.5106

          k = 0.0835-0.4338 0.3161 (  4446 PWs)   bands (ev):

   -31.5292 -31.5047 -13.4620 -13.3953 -12.9979 -12.9181 -12.8844 -12.8169
     4.1923   4.8250   6.1914   6.3760

          k = 0.0835-0.2410 0.0632 (  4445 PWs)   bands (ev):

   -31.6062 -31.4578 -13.4791 -13.0807 -13.0460 -12.9389 -12.8187 -12.7919
     2.0115   5.0107   6.9992   7.4498

          k = 0.0835-0.2410 0.1897 (  4435 PWs)   bands (ev):

   -31.5862 -31.4772 -13.4499 -13.1047 -13.0037 -12.9960 -12.8256 -12.7912
     2.3678   4.5783   7.1293   7.5664

          k = 0.0835-0.2410 0.3161 (  4447 PWs)   bands (ev):

   -31.5522 -31.5122 -13.3738 -13.2490 -12.9481 -12.9089 -12.8815 -12.8255
     3.0139   3.8207   7.4338   7.6250

          k = 0.0835-0.0482 0.0632 (  4430 PWs)   bands (ev):

   -31.6325 -31.4518 -13.5533 -12.9942 -12.9847 -12.8272 -12.7876 -12.7771
     1.3017   4.6840   7.1542   8.9827

          k = 0.0835-0.0482 0.1897 (  4422 PWs)   bands (ev):

   -31.6084 -31.4760 -13.4688 -12.9647 -12.9584 -12.9419 -12.8141 -12.7998
     1.6922   4.1243   7.5937   9.0233

          k = 0.0835-0.0482 0.3161 (  4450 PWs)   bands (ev):

   -31.5677 -31.5191 -13.3149 -13.1236 -12.9129 -12.9100 -12.8600 -12.8499
     2.3955   3.2723   8.2817   8.8532

          k = 0.2504 0.4338 0.0632 (  4434 PWs)   bands (ev):

   -31.5441 -31.4821 -13.3083 -13.2447 -13.1097 -13.0935 -12.9464 -12.8419
     3.8364   5.3437   5.5923   6.7507

          k = 0.2504 0.4338 0.1897 (  4442 PWs)   bands (ev):

   -31.5359 -31.4903 -13.4116 -13.3064 -13.1416 -12.9657 -12.8885 -12.8357
     4.1079   5.4068   5.7856   6.3985

          k = 0.2504 0.4338 0.3161 (  4447 PWs)   bands (ev):

   -31.5214 -31.5045 -13.4519 -13.4107 -13.0720 -12.9790 -12.8430 -12.7978
     4.5904   5.1415   6.0418   6.1813

          k = 0.2504 0.6266 0.0632 (  4440 PWs)   bands (ev):

   -31.5265 -31.4942 -13.2850 -13.2382 -13.1538 -13.0796 -12.9918 -12.8557
     4.4486   5.0819   5.3662   6.7262

          k = 0.2504 0.6266 0.1897 (  4450 PWs)   bands (ev):

   -31.5223 -31.4985 -13.3940 -13.3262 -13.1880 -12.9335 -12.9085 -12.8577
     4.6820   5.3046   5.5318   6.3426

          k = 0.2504 0.6266 0.3161 (  4441 PWs)   bands (ev):

   -31.5141 -31.5056 -13.4533 -13.4284 -13.1040 -13.0019 -12.8249 -12.7989
     5.0927   5.4889   5.6956   5.8980

          k = 0.2504-0.3374 0.0632 (  4442 PWs)   bands (ev):

   -31.5651 -31.4716 -13.3658 -13.1988 -13.1156 -13.0406 -12.9017 -12.8184
     3.2019   5.3169   6.0704   6.8063

          k = 0.2504-0.3374 0.1897 (  4438 PWs)   bands (ev):

   -31.5525 -31.4835 -13.4318 -13.2594 -13.0842 -12.9948 -12.8629 -12.8152
     3.5032   5.2041   6.2325   6.5715

          k = 0.2504-0.3374 0.3161 (  4444 PWs)   bands (ev):

   -31.5307 -31.5053 -13.4417 -13.3765 -13.0229 -12.9420 -12.8683 -12.8044
     4.0469   4.7049   6.4384   6.5228

          k = 0.2504-0.1446 0.0632 (  4444 PWs)   bands (ev):

   -31.5984 -31.4598 -13.4577 -13.1200 -13.0373 -12.9781 -12.8361 -12.7867
     2.2298   5.0902   6.9488   7.1142

          k = 0.2504-0.1446 0.1897 (  4445 PWs)   bands (ev):

   -31.5800 -31.4783 -13.4486 -13.1389 -13.0171 -13.0042 -12.8208 -12.8000
     2.5756   4.7073   6.9845   7.2533

          k = 0.2504-0.1446 0.3161 (  4452 PWs)   bands (ev):

   -31.5479 -31.5108 -13.3932 -13.2815 -12.9466 -12.9138 -12.8794 -12.8290
     3.2032   3.9858   7.2080   7.3435

          k = 0.4174 0.7229 0.0632 (  4450 PWs)   bands (ev):

   -31.5344 -31.4890 -13.3248 -13.2083 -13.1482 -13.0909 -12.9786 -12.8299
     4.5073   4.7456   5.5116   6.7255

          k = 0.4174 0.7229 0.1897 (  4439 PWs)   bands (ev):

   -31.5276 -31.4945 -13.4309 -13.3123 -13.1480 -12.9578 -12.8943 -12.8415
     4.7198   5.0157   5.6346   6.2974

          k = 0.4174 0.7229 0.3161 (  4442 PWs)   bands (ev):

   -31.5169 -31.5049 -13.4735 -13.4313 -13.0647 -12.9696 -12.8456 -12.8040
     5.1182   5.3846   5.6824   5.7261

          k = 0.4174-0.2410 0.0632 (  4457 PWs)   bands (ev):

   -31.5546 -31.4772 -13.3624 -13.2145 -13.1082 -13.0848 -12.9371 -12.7907
     3.7024   5.1686   5.6440   6.7566

          k = 0.4174-0.2410 0.1897 (  4465 PWs)   bands (ev):

   -31.5440 -31.4879 -13.4612 -13.2863 -13.0462 -13.0347 -12.8440 -12.8310
     3.9771   5.3170   5.6704   6.3902

          k = 0.4174-0.2410 0.3161 (  4445 PWs)   bands (ev):

   -31.5255 -31.5046 -13.4824 -13.4184 -12.9788 -12.9000 -12.9000 -12.8293
     4.4690   5.0513   5.8596   6.1270

!    total energy              =    -151.47493509 Ry
     Harris-Foulkes estimate   =    -151.47493509 Ry
     estimated scf accuracy    <          5.6E-11 Ry

     The total energy is the sum of the following terms:

     one-electron contribution =     -44.09686701 Ry
     hartree contribution      =      28.62351041 Ry
     xc contribution           =     -23.69685094 Ry
     ewald contribution        =    -112.30472756 Ry

     convergence has been achieved in   6 iterations

     Forces acting on atoms (Ry/au):

     atom    1 type  2   force =     0.00000000    0.00000000   -0.00000000
     atom    2 type  2   force =    -0.00000000    0.00000000    0.00000000
     atom    3 type  1   force =    -0.00000000   -0.00000000   -0.00000000
     atom    4 type  1   force =    -0.00000000   -0.00000000    0.00000000
     atom    5 type  1   force =     0.00000000    0.00000000    0.00000000
     atom    6 type  1   force =     0.00000000    0.00000000   -0.00000000

     Total force =     0.000000     Total SCF correction =     0.000000


     entering subroutine stress ...

          total   stress  (Ry/bohr**3)                   (kbar)     P=  200.48
   0.00136351   0.00000000   0.00000000        200.58      0.00      0.00
   0.00000000   0.00136351   0.00000000          0.00    200.58      0.00
   0.00000000   0.00000000   0.00136146          0.00      0.00    200.28


     number of scf cycles    =   4
     number of bfgs steps    =   3

     enthalpy old            =    -150.9736345880 Ry
     enthalpy new            =    -150.9736395953 Ry

     CASE: enthalpy_new < enthalpy_old

     new trust radius        =       0.0003223006 bohr
     new conv_thr            =       0.0000000100 Ry

     new unit-cell volume =    368.79362 a.u.^3 (    54.64958 Ang^3 )

CELL_PARAMETERS (alat=  6.86950000)
   0.998342420   0.000000000   0.000000000
  -0.499171210   0.864589897   0.000000000
   0.000000000   0.000000000   1.318008884

ATOMIC_POSITIONS (crystal)
Ca       0.333333333   0.666666667   0.250000000
Ca       0.666666667   0.333333333   0.750000000
H        0.333333333   0.666666667   0.750000000
H        0.666666667   0.333333333   0.250000000
H       -0.000000000   0.000000000   0.000000000
H       -0.000000000   0.000000000   0.500000000



     Writing output data file CaH2_ambient.save
     NEW-OLD atomic charge density approx. for the potential
     NEW k-points:
        k(    1) = (   0.0834717   0.1445772   0.0632267), wk =   0.0370370
        k(    2) = (   0.0834717   0.1445772   0.1896801), wk =   0.0370370
        k(    3) = (   0.0834717   0.1445772   0.3161334), wk =   0.0370370
        k(    4) = (   0.0834717   0.3373468   0.0632267), wk =   0.0740741
        k(    5) = (   0.0834717   0.3373468   0.1896801), wk =   0.0740741
        k(    6) = (   0.0834717   0.3373468   0.3161334), wk =   0.0740741
        k(    7) = (   0.0834717   0.5301165   0.0632267), wk =   0.0740741
        k(    8) = (   0.0834717   0.5301165   0.1896801), wk =   0.0740741
        k(    9) = (   0.0834717   0.5301165   0.3161334), wk =   0.0740741
        k(   10) = (   0.0834717  -0.4337316   0.0632267), wk =   0.0740741
        k(   11) = (   0.0834717  -0.4337316   0.1896801), wk =   0.0740741
        k(   12) = (   0.0834717  -0.4337316   0.3161334), wk =   0.0740741
        k(   13) = (   0.0834717  -0.2409620   0.0632267), wk =   0.0740741
        k(   14) = (   0.0834717  -0.2409620   0.1896801), wk =   0.0740741
        k(   15) = (   0.0834717  -0.2409620   0.3161334), wk =   0.0740741
        k(   16) = (   0.0834717  -0.0481924   0.0632267), wk =   0.0370370
        k(   17) = (   0.0834717  -0.0481924   0.1896801), wk =   0.0370370
        k(   18) = (   0.0834717  -0.0481924   0.3161334), wk =   0.0370370
        k(   19) = (   0.2504151   0.4337316   0.0632267), wk =   0.0370370
        k(   20) = (   0.2504151   0.4337316   0.1896801), wk =   0.0370370
        k(   21) = (   0.2504151   0.4337316   0.3161334), wk =   0.0370370
        k(   22) = (   0.2504151   0.6265013   0.0632267), wk =   0.0740741
        k(   23) = (   0.2504151   0.6265013   0.1896801), wk =   0.0740741
        k(   24) = (   0.2504151   0.6265013   0.3161334), wk =   0.0740741
        k(   25) = (   0.2504151  -0.3373468   0.0632267), wk =   0.0740741
        k(   26) = (   0.2504151  -0.3373468   0.1896801), wk =   0.0740741
        k(   27) = (   0.2504151  -0.3373468   0.3161334), wk =   0.0740741
        k(   28) = (   0.2504151  -0.1445772   0.0632267), wk =   0.0370370
        k(   29) = (   0.2504151  -0.1445772   0.1896801), wk =   0.0370370
        k(   30) = (   0.2504151  -0.1445772   0.3161334), wk =   0.0370370
        k(   31) = (   0.4173585   0.7228861   0.0632267), wk =   0.0370370
        k(   32) = (   0.4173585   0.7228861   0.1896801), wk =   0.0370370
        k(   33) = (   0.4173585   0.7228861   0.3161334), wk =   0.0370370
        k(   34) = (   0.4173585  -0.2409620   0.0632267), wk =   0.0370370
        k(   35) = (   0.4173585  -0.2409620   0.1896801), wk =   0.0370370
        k(   36) = (   0.4173585  -0.2409620   0.3161334), wk =   0.0370370
     extrapolated charge   24.00424, renormalised to   24.00000

     total cpu time spent up to now is      632.7 secs

     per-process dynamical memory:    23.0 Mb

     Self-consistent Calculation

     iteration #  1     ecut=    80.00 Ry     beta=0.30
     Davidson diagonalization with overlap
     ethr =  1.00E-06,  avg # of iterations =  1.0

     Threshold (ethr) on eigenvalues was too large:
     Diagonalizing with lowered threshold

     Davidson diagonalization with overlap
     ethr =  3.62E-09,  avg # of iterations =  1.9

     total cpu time spent up to now is      649.0 secs

     total energy              =    -151.47504090 Ry
     Harris-Foulkes estimate   =    -151.47036389 Ry
     estimated scf accuracy    <       0.00000092 Ry

     iteration #  2     ecut=    80.00 Ry     beta=0.30
     Davidson diagonalization with overlap
     ethr =  3.85E-09,  avg # of iterations =  2.0

     total cpu time spent up to now is      660.7 secs

     total energy              =    -151.47504151 Ry
     Harris-Foulkes estimate   =    -151.47504151 Ry
     estimated scf accuracy    <       0.00000004 Ry

     iteration #  3     ecut=    80.00 Ry     beta=0.30
     Davidson diagonalization with overlap
     ethr =  1.53E-10,  avg # of iterations =  1.1

     total cpu time spent up to now is      668.9 secs

     total energy              =    -151.47504149 Ry
     Harris-Foulkes estimate   =    -151.47504151 Ry
     estimated scf accuracy    <       0.00000002 Ry

     iteration #  4     ecut=    80.00 Ry     beta=0.30
     Davidson diagonalization with overlap
     ethr =  9.44E-11,  avg # of iterations =  2.1

     total cpu time spent up to now is      679.9 secs

     End of self-consistent calculation

          k = 0.0835 0.1446 0.0632 (  4433 PWs)   bands (ev):

   -31.6260 -31.4563 -13.5297 -13.0266 -13.0104 -12.8766 -12.7916 -12.7914
     1.5459   4.8060   7.0967   8.3221

          k = 0.0835 0.1446 0.1897 (  4435 PWs)   bands (ev):

   -31.6035 -31.4792 -13.4634 -13.0155 -12.9839 -12.9701 -12.8207 -12.7932
     1.9244   4.2847   7.4214   8.3975

          k = 0.0835 0.1446 0.3161 (  4455 PWs)   bands (ev):

   -31.5652 -31.5193 -13.3384 -13.1752 -12.9280 -12.9139 -12.8707 -12.8412
     2.6080   3.4618   7.9480   8.3397

          k = 0.0835 0.3373 0.0632 (  4441 PWs)   bands (ev):

   -31.5868 -31.4668 -13.4207 -13.1597 -13.0809 -13.0094 -12.8676 -12.7988
     2.6407   5.2112   6.5899   6.8852

          k = 0.0835 0.3373 0.1897 (  4446 PWs)   bands (ev):

   -31.5707 -31.4830 -13.4463 -13.2002 -13.0409 -13.0136 -12.8391 -12.8076
     2.9672   4.9349   6.6863   6.8443

          k = 0.0835 0.3373 0.3161 (  4452 PWs)   bands (ev):

   -31.5430 -31.5110 -13.4226 -13.3325 -12.9777 -12.9109 -12.8936 -12.8211
     3.5597   4.2934   6.8454   6.9255

          k = 0.0835 0.5301 0.0632 (  4457 PWs)   bands (ev):

   -31.5472 -31.4860 -13.3535 -13.2101 -13.1324 -13.0955 -12.9610 -12.8052
     4.1338   4.8916   5.5712   6.7316

          k = 0.0835 0.5301 0.1897 (  4454 PWs)   bands (ev):

   -31.5389 -31.4936 -13.4592 -13.3052 -13.0943 -13.0008 -12.8685 -12.8344
     4.3849   5.1294   5.6314   6.2935

          k = 0.0835 0.5301 0.3161 (  4444 PWs)   bands (ev):

   -31.5241 -31.5072 -13.4897 -13.4338 -13.0139 -12.9286 -12.8799 -12.8212
     4.8315   5.3254   5.5818   5.8759

          k = 0.0835-0.4337 0.0632 (  4446 PWs)   bands (ev):

   -31.5641 -31.4763 -13.3677 -13.2146 -13.1028 -13.0696 -12.9203 -12.8027
     3.3731   5.2976   5.8545   6.7852

          k = 0.0835-0.4337 0.1897 (  4453 PWs)   bands (ev):

   -31.5525 -31.4879 -13.4505 -13.2703 -13.0747 -13.0106 -12.8534 -12.8248
     3.6648   5.2650   5.9663   6.5088

          k = 0.0835-0.4337 0.3161 (  4446 PWs)   bands (ev):

   -31.5320 -31.5075 -13.4645 -13.3978 -13.0007 -12.9209 -12.8873 -12.8198
     4.1902   4.8229   6.1894   6.3741

          k = 0.0835-0.2410 0.0632 (  4445 PWs)   bands (ev):

   -31.6089 -31.4606 -13.4816 -13.0835 -13.0487 -12.9417 -12.8216 -12.7948
     2.0097   5.0088   6.9972   7.4476

          k = 0.0835-0.2410 0.1897 (  4435 PWs)   bands (ev):

   -31.5890 -31.4800 -13.4525 -13.1074 -13.0065 -12.9988 -12.8285 -12.7941
     2.3660   4.5763   7.1273   7.5642

          k = 0.0835-0.2410 0.3161 (  4447 PWs)   bands (ev):

   -31.5549 -31.5150 -13.3764 -13.2517 -12.9509 -12.9117 -12.8843 -12.8284
     3.0120   3.8188   7.4318   7.6228

          k = 0.0835-0.0482 0.0632 (  4430 PWs)   bands (ev):

   -31.6353 -31.4546 -13.5558 -12.9970 -12.9875 -12.8301 -12.7905 -12.7800
     1.3001   4.6823   7.1521   8.9801

          k = 0.0835-0.0482 0.1897 (  4422 PWs)   bands (ev):

   -31.6111 -31.4788 -13.4714 -12.9675 -12.9613 -12.9447 -12.8170 -12.8027
     1.6905   4.1225   7.5916   9.0208

          k = 0.0835-0.0482 0.3161 (  4450 PWs)   bands (ev):

   -31.5704 -31.5219 -13.3175 -13.1263 -12.9157 -12.9129 -12.8629 -12.8527
     2.3938   3.2705   8.2795   8.8508

          k = 0.2504 0.4337 0.0632 (  4434 PWs)   bands (ev):

   -31.5468 -31.4849 -13.3110 -13.2473 -13.1123 -13.0962 -12.9492 -12.8448
     3.8343   5.3415   5.5903   6.7490

          k = 0.2504 0.4337 0.1897 (  4442 PWs)   bands (ev):

   -31.5387 -31.4931 -13.4141 -13.3089 -13.1443 -12.9685 -12.8913 -12.8386
     4.1058   5.4046   5.7835   6.3967

          k = 0.2504 0.4337 0.3161 (  4447 PWs)   bands (ev):

   -31.5242 -31.5073 -13.4544 -13.4132 -13.0747 -12.9818 -12.8459 -12.8007
     4.5883   5.1393   6.0397   6.1793

          k = 0.2504 0.6265 0.0632 (  4440 PWs)   bands (ev):

   -31.5293 -31.4970 -13.2876 -13.2408 -13.1565 -13.0824 -12.9945 -12.8585
     4.4465   5.0797   5.3641   6.7245

          k = 0.2504 0.6265 0.1897 (  4450 PWs)   bands (ev):

   -31.5251 -31.5013 -13.3965 -13.3287 -13.1906 -12.9363 -12.9113 -12.8605
     4.6799   5.3024   5.5297   6.3409

          k = 0.2504 0.6265 0.3161 (  4441 PWs)   bands (ev):

   -31.5169 -31.5084 -13.4558 -13.4309 -13.1067 -13.0047 -12.8278 -12.8018
     5.0906   5.4867   5.6935   5.8961

          k = 0.2504-0.3373 0.0632 (  4442 PWs)   bands (ev):

   -31.5679 -31.4744 -13.3684 -13.2014 -13.1183 -13.0433 -12.9046 -12.8213
     3.1998   5.3148   6.0683   6.8046

          k = 0.2504-0.3373 0.1897 (  4438 PWs)   bands (ev):

   -31.5553 -31.4864 -13.4343 -13.2620 -13.0869 -12.9976 -12.8658 -12.8181
     3.5011   5.2020   6.2304   6.5697

          k = 0.2504-0.3373 0.3161 (  4444 PWs)   bands (ev):

   -31.5335 -31.5081 -13.4442 -13.3791 -13.0256 -12.9448 -12.8711 -12.8072
     4.0448   4.7028   6.4364   6.5209

          k = 0.2504-0.1446 0.0632 (  4444 PWs)   bands (ev):

   -31.6011 -31.4626 -13.4603 -13.1227 -13.0401 -12.9809 -12.8390 -12.7896
     2.2280   5.0882   6.9469   7.1120

          k = 0.2504-0.1446 0.1897 (  4445 PWs)   bands (ev):

   -31.5827 -31.4811 -13.4511 -13.1416 -13.0199 -13.0070 -12.8237 -12.8029
     2.5738   4.7054   6.9826   7.2512

          k = 0.2504-0.1446 0.3161 (  4452 PWs)   bands (ev):

   -31.5507 -31.5136 -13.3958 -13.2841 -12.9494 -12.9166 -12.8823 -12.8318
     3.2013   3.9839   7.2060   7.3414

          k = 0.4174 0.7229 0.0632 (  4450 PWs)   bands (ev):

   -31.5372 -31.4919 -13.3273 -13.2110 -13.1509 -13.0936 -12.9814 -12.8327
     4.5052   4.7434   5.5096   6.7238

          k = 0.4174 0.7229 0.1897 (  4439 PWs)   bands (ev):

   -31.5304 -31.4974 -13.4334 -13.3149 -13.1507 -12.9606 -12.8971 -12.8443
     4.7177   5.0134   5.6326   6.2957

          k = 0.4174 0.7229 0.3161 (  4442 PWs)   bands (ev):

   -31.5197 -31.5077 -13.4760 -13.4338 -13.0674 -12.9724 -12.8485 -12.8069
     5.1162   5.3822   5.6803   5.7243

          k = 0.4174-0.2410 0.0632 (  4457 PWs)   bands (ev):

   -31.5573 -31.4801 -13.3650 -13.2171 -13.1108 -13.0875 -12.9399 -12.7936
     3.7003   5.1663   5.6422   6.7549

          k = 0.4174-0.2410 0.1897 (  4465 PWs)   bands (ev):

   -31.5468 -31.4907 -13.4637 -13.2889 -13.0489 -13.0374 -12.8469 -12.8338
     3.9750   5.3148   5.6685   6.3884

          k = 0.4174-0.2410 0.3161 (  4445 PWs)   bands (ev):

   -31.5283 -31.5074 -13.4849 -13.4209 -12.9816 -12.9029 -12.9028 -12.8321
     4.4670   5.0492   5.8576   6.1250

!    total energy              =    -151.47504150 Ry
     Harris-Foulkes estimate   =    -151.47504150 Ry
     estimated scf accuracy    <          7.1E-10 Ry

     The total energy is the sum of the following terms:

     one-electron contribution =     -44.10885095 Ry
     hartree contribution      =      28.62701692 Ry
     xc contribution           =     -23.69647052 Ry
     ewald contribution        =    -112.29673696 Ry

     convergence has been achieved in   4 iterations

     Forces acting on atoms (Ry/au):

     atom    1 type  2   force =    -0.00000000    0.00000000   -0.00000000
     atom    2 type  2   force =     0.00000000   -0.00000000    0.00000000
     atom    3 type  1   force =    -0.00000000   -0.00000000    0.00000000
     atom    4 type  1   force =     0.00000000    0.00000000   -0.00000000
     atom    5 type  1   force =    -0.00000000    0.00000000   -0.00000000
     atom    6 type  1   force =     0.00000000    0.00000000   -0.00000000

     Total force =     0.000000     Total SCF correction =     0.000000


     entering subroutine stress ...

          total   stress  (Ry/bohr**3)                   (kbar)     P=  200.21
   0.00136140   0.00000000  -0.00000000        200.27      0.00     -0.00
   0.00000000   0.00136140   0.00000000          0.00    200.27      0.00
  -0.00000000   0.00000000   0.00136020         -0.00      0.00    200.09


     bfgs converged in   5 scf cycles and   4 bfgs steps
     (criteria: energy < 0.10E-03, force < 0.10E-02, cell < 0.50E+00)

     End of BFGS Geometry Optimization

     Final enthalpy =    -150.9736397942 Ry
Begin final coordinates
     new unit-cell volume =    368.79362 a.u.^3 (    54.64958 Ang^3 )

CELL_PARAMETERS (alat=  6.86950000)
   0.998342420   0.000000000   0.000000000
  -0.499171210   0.864589897   0.000000000
   0.000000000   0.000000000   1.318008884

ATOMIC_POSITIONS (crystal)
Ca       0.333333333   0.666666667   0.250000000
Ca       0.666666667   0.333333333   0.750000000
H        0.333333333   0.666666667   0.750000000
H        0.666666667   0.333333333   0.250000000
H       -0.000000000   0.000000000   0.000000000
H       -0.000000000   0.000000000   0.500000000
End final coordinates



     A final scf calculation at the relaxed structure.
     The G-vectors are recalculated for the final unit cell
     Results may differ from those at the preceding step.

     G-vector sticks info
     --------------------
     sticks:   dense  smooth     PW     G-vecs:    dense   smooth      PW
     Sum        1039    1039    313                35685    35685    5825



     bravais-lattice index     =            4
     lattice parameter (alat)  =       6.8695  a.u.
     unit-cell volume          =     368.7936 (a.u.)^3
     number of atoms/cell      =            6
     number of atomic types    =            2
     number of electrons       =        24.00
     number of Kohn-Sham states=           12
     kinetic-energy cutoff     =      80.0000  Ry
     charge density cutoff     =     320.0000  Ry
     convergence threshold     =      1.0E-08
     mixing beta               =       0.3000
     number of iterations used =           16  local-TF  mixing
     Exchange-correlation      = PBE ( 1 4 3 4 0)
     EXX-fraction              =        0.00

     celldm(1)=   6.869500  celldm(2)=   0.000000  celldm(3)=   1.310400
     celldm(4)=   0.000000  celldm(5)=   0.000000  celldm(6)=   0.000000

     crystal axes: (cart. coord. in units of alat)
               a(1) = (   0.998342   0.000000   0.000000 )  
               a(2) = (  -0.499171   0.864590   0.000000 )  
               a(3) = (   0.000000   0.000000   1.318009 )  

     reciprocal axes: (cart. coord. in units 2 pi/alat)
               b(1) = (  1.001660  0.578309 -0.000000 )  
               b(2) = ( -0.000000  1.156618  0.000000 )  
               b(3) = (  0.000000 -0.000000  0.758720 )  


     PseudoPot. # 1 for H  read from file:
     /home/ilia/espresso/pseudo/H.pbe-sp-mt.ncpp
     MD5 check sum: 7a641936b52ccecd26bd1ad87cca5aed
     Pseudo is Norm-conserving, Zval =  1.0
     Generated by old ld1 code (numerical format)
     Using radial grid of 1076 points,  0 beta functions with: 

     PseudoPot. # 2 for Ca read from file:
     /home/ilia/espresso/pseudo/Ca.pbe-sp-mt_ion2.ncpp
     MD5 check sum: 4bcd670d05521f7b178fdf0a334578ab
     Pseudo is Norm-conserving, Zval = 10.0
     Generated by old ld1 code (numerical format)
     Using radial grid of 1153 points,  1 beta functions with: 
                l(1) =   1

     atomic species   valence    mass     pseudopotential
        H              1.00     1.00700     H ( 1.00)
        Ca            10.00    40.07800     Ca( 1.00)

     24 Sym. Ops., with inversion, found (12 have fractional translation)



   Cartesian axes

     site n.     atom                  positions (alat units)
         1           Ca  tau(   1) = (   0.0000000   0.5763933   0.3295022  )
         2           Ca  tau(   2) = (   0.4991712   0.2881966   0.9885067  )
         3           H   tau(   3) = (   0.0000000   0.5763933   0.9885067  )
         4           H   tau(   4) = (   0.4991712   0.2881966   0.3295022  )
         5           H   tau(   5) = (  -0.0000000   0.0000000   0.0000000  )
         6           H   tau(   6) = (  -0.0000000   0.0000000   0.6590044  )

     number of k points=    36
                       cart. coord. in units 2pi/alat
        k(    1) = (   0.0834717   0.1445772   0.0632267), wk =   0.0370370
        k(    2) = (   0.0834717   0.1445772   0.1896801), wk =   0.0370370
        k(    3) = (   0.0834717   0.1445772   0.3161334), wk =   0.0370370
        k(    4) = (   0.0834717   0.3373468   0.0632267), wk =   0.0740741
        k(    5) = (   0.0834717   0.3373468   0.1896801), wk =   0.0740741
        k(    6) = (   0.0834717   0.3373468   0.3161334), wk =   0.0740741
        k(    7) = (   0.0834717   0.5301165   0.0632267), wk =   0.0740741
        k(    8) = (   0.0834717   0.5301165   0.1896801), wk =   0.0740741
        k(    9) = (   0.0834717   0.5301165   0.3161334), wk =   0.0740741
        k(   10) = (   0.0834717  -0.4337316   0.0632267), wk =   0.0740741
        k(   11) = (   0.0834717  -0.4337316   0.1896801), wk =   0.0740741
        k(   12) = (   0.0834717  -0.4337316   0.3161334), wk =   0.0740741
        k(   13) = (   0.0834717  -0.2409620   0.0632267), wk =   0.0740741
        k(   14) = (   0.0834717  -0.2409620   0.1896801), wk =   0.0740741
        k(   15) = (   0.0834717  -0.2409620   0.3161334), wk =   0.0740741
        k(   16) = (   0.0834717  -0.0481924   0.0632267), wk =   0.0370370
        k(   17) = (   0.0834717  -0.0481924   0.1896801), wk =   0.0370370
        k(   18) = (   0.0834717  -0.0481924   0.3161334), wk =   0.0370370
        k(   19) = (   0.2504151   0.4337316   0.0632267), wk =   0.0370370
        k(   20) = (   0.2504151   0.4337316   0.1896801), wk =   0.0370370
        k(   21) = (   0.2504151   0.4337316   0.3161334), wk =   0.0370370
        k(   22) = (   0.2504151   0.6265013   0.0632267), wk =   0.0740741
        k(   23) = (   0.2504151   0.6265013   0.1896801), wk =   0.0740741
        k(   24) = (   0.2504151   0.6265013   0.3161334), wk =   0.0740741
        k(   25) = (   0.2504151  -0.3373468   0.0632267), wk =   0.0740741
        k(   26) = (   0.2504151  -0.3373468   0.1896801), wk =   0.0740741
        k(   27) = (   0.2504151  -0.3373468   0.3161334), wk =   0.0740741
        k(   28) = (   0.2504151  -0.1445772   0.0632267), wk =   0.0370370
        k(   29) = (   0.2504151  -0.1445772   0.1896801), wk =   0.0370370
        k(   30) = (   0.2504151  -0.1445772   0.3161334), wk =   0.0370370
        k(   31) = (   0.4173585   0.7228861   0.0632267), wk =   0.0370370
        k(   32) = (   0.4173585   0.7228861   0.1896801), wk =   0.0370370
        k(   33) = (   0.4173585   0.7228861   0.3161334), wk =   0.0370370
        k(   34) = (   0.4173585  -0.2409620   0.0632267), wk =   0.0370370
        k(   35) = (   0.4173585  -0.2409620   0.1896801), wk =   0.0370370
        k(   36) = (   0.4173585  -0.2409620   0.3161334), wk =   0.0370370

     Dense  grid:    35685 G-vectors     FFT dimensions: (  40,  40,  54)

     Largest allocated arrays     est. size (Mb)     dimensions
        Kohn-Sham Wavefunctions         0.82 Mb     (   4465,   12)
        NL pseudopotentials             0.41 Mb     (   4465,    6)
        Each V/rho on FFT grid          1.32 Mb     (  86400)
        Each G-vector array             0.27 Mb     (  35685)
        G-vector shells                 0.01 Mb     (   1664)
     Largest temporary arrays     est. size (Mb)     dimensions
        Auxiliary wavefunctions         3.27 Mb     (   4465,   48)
        Each subspace H/S matrix        0.04 Mb     (  48,  48)
        Each <psi_i|beta_j> matrix      0.00 Mb     (      6,   12)
        Arrays for rho mixing          21.09 Mb     (  86400,  16)

     Initial potential from superposition of free atoms

     starting charge   19.99996, renormalised to   24.00000
     Starting wfc are   12 randomized atomic wfcs

     Writing output data file CaH2_ambient.save

     total cpu time spent up to now is      731.0 secs

     per-process dynamical memory:    22.7 Mb

     Self-consistent Calculation

     iteration #  1     ecut=    80.00 Ry     beta=0.30
     Davidson diagonalization with overlap
     ethr =  1.00E-06,  avg # of iterations =  5.0

     total cpu time spent up to now is      754.4 secs

     total energy              =    -153.07493267 Ry
     Harris-Foulkes estimate   =    -154.21531074 Ry
     estimated scf accuracy    <       5.60099105 Ry

     iteration #  2     ecut=    80.00 Ry     beta=0.30
     Davidson diagonalization with overlap
     ethr =  1.00E-02,  avg # of iterations =  1.0

     total cpu time spent up to now is      762.8 secs

     total energy              =    -150.84602477 Ry
     Harris-Foulkes estimate   =    -153.13768487 Ry
     estimated scf accuracy    <       3.35416460 Ry

     iteration #  3     ecut=    80.00 Ry     beta=0.30
     Davidson diagonalization with overlap
     ethr =  1.00E-02,  avg # of iterations =  2.0

     total cpu time spent up to now is      774.6 secs

     total energy              =    -151.46543305 Ry
     Harris-Foulkes estimate   =    -151.47124288 Ry
     estimated scf accuracy    <       0.12254510 Ry

     iteration #  4     ecut=    80.00 Ry     beta=0.30
     Davidson diagonalization with overlap
     ethr =  5.11E-04,  avg # of iterations =  1.2

     total cpu time spent up to now is      783.0 secs

     total energy              =    -151.46916220 Ry
     Harris-Foulkes estimate   =    -151.46790266 Ry
     estimated scf accuracy    <       0.07529278 Ry

     iteration #  5     ecut=    80.00 Ry     beta=0.30
     Davidson diagonalization with overlap
     ethr =  3.14E-04,  avg # of iterations =  2.0

     total cpu time spent up to now is      792.3 secs

     total energy              =    -151.47490713 Ry
     Harris-Foulkes estimate   =    -151.47500582 Ry
     estimated scf accuracy    <       0.00211591 Ry

     iteration #  6     ecut=    80.00 Ry     beta=0.30
     Davidson diagonalization with overlap
     ethr =  8.82E-06,  avg # of iterations =  2.1

     total cpu time spent up to now is      801.3 secs

     total energy              =    -151.47519611 Ry
     Harris-Foulkes estimate   =    -151.47504066 Ry
     estimated scf accuracy    <       0.00111004 Ry

     iteration #  7     ecut=    80.00 Ry     beta=0.30
     Davidson diagonalization with overlap
     ethr =  4.63E-06,  avg # of iterations =  2.0

     total cpu time spent up to now is      810.6 secs

     total energy              =    -151.47510774 Ry
     Harris-Foulkes estimate   =    -151.47526136 Ry
     estimated scf accuracy    <       0.00023409 Ry

     iteration #  8     ecut=    80.00 Ry     beta=0.30
     Davidson diagonalization with overlap
     ethr =  9.75E-07,  avg # of iterations =  2.0

     total cpu time spent up to now is      822.0 secs

     total energy              =    -151.47514576 Ry
     Harris-Foulkes estimate   =    -151.47514399 Ry
     estimated scf accuracy    <       0.00000341 Ry

     iteration #  9     ecut=    80.00 Ry     beta=0.30
     Davidson diagonalization with overlap
     ethr =  1.42E-08,  avg # of iterations =  2.9

     total cpu time spent up to now is      834.5 secs

     total energy              =    -151.47514330 Ry
     Harris-Foulkes estimate   =    -151.47514961 Ry
     estimated scf accuracy    <       0.00001296 Ry

     iteration # 10     ecut=    80.00 Ry     beta=0.30
     Davidson diagonalization with overlap
     ethr =  1.42E-08,  avg # of iterations =  2.0

     total cpu time spent up to now is      846.4 secs

     total energy              =    -151.47514528 Ry
     Harris-Foulkes estimate   =    -151.47514530 Ry
     estimated scf accuracy    <       0.00000009 Ry

     iteration # 11     ecut=    80.00 Ry     beta=0.30
     Davidson diagonalization with overlap
     ethr =  3.61E-10,  avg # of iterations =  2.0

     total cpu time spent up to now is      856.0 secs

     total energy              =    -151.47514529 Ry
     Harris-Foulkes estimate   =    -151.47514529 Ry
     estimated scf accuracy    <       0.00000004 Ry

     iteration # 12     ecut=    80.00 Ry     beta=0.30
     Davidson diagonalization with overlap
     ethr =  1.85E-10,  avg # of iterations =  1.2

     total cpu time spent up to now is      864.2 secs

     End of self-consistent calculation

          k = 0.0835 0.1446 0.0632 (  4449 PWs)   bands (ev):

   -31.6268 -31.4571 -13.5299 -13.0269 -13.0106 -12.8769 -12.7919 -12.7916
     1.5458   4.8059   7.0967   8.3221

          k = 0.0835 0.1446 0.1897 (  4457 PWs)   bands (ev):

   -31.6043 -31.4805 -13.4636 -13.0157 -12.9842 -12.9704 -12.8210 -12.7935
     1.9243   4.2846   7.4214   8.3975

          k = 0.0835 0.1446 0.3161 (  4459 PWs)   bands (ev):

   -31.5654 -31.5199 -13.3386 -13.1754 -12.9283 -12.9142 -12.8710 -12.8415
     2.6080   3.4617   7.9480   8.3397

          k = 0.0835 0.3373 0.0632 (  4443 PWs)   bands (ev):

   -31.5871 -31.4673 -13.4209 -13.1600 -13.0812 -13.0096 -12.8678 -12.7991
     2.6406   5.2111   6.5899   6.8852

          k = 0.0835 0.3373 0.1897 (  4454 PWs)   bands (ev):

   -31.5714 -31.4835 -13.4465 -13.2005 -13.0412 -13.0139 -12.8394 -12.8078
     2.9672   4.9349   6.6863   6.8443

          k = 0.0835 0.3373 0.3161 (  4463 PWs)   bands (ev):

   -31.5437 -31.5116 -13.4228 -13.3327 -12.9780 -12.9112 -12.8939 -12.8214
     3.5597   4.2934   6.8454   6.9255

          k = 0.0835 0.5301 0.0632 (  4465 PWs)   bands (ev):

   -31.5478 -31.4865 -13.3538 -13.2103 -13.1327 -13.0958 -12.9612 -12.8055
     4.1337   4.8916   5.5711   6.7316

          k = 0.0835 0.5301 0.1897 (  4455 PWs)   bands (ev):

   -31.5391 -31.4940 -13.4594 -13.3054 -13.0946 -13.0011 -12.8687 -12.8347
     4.3849   5.1294   5.6314   6.2935

          k = 0.0835 0.5301 0.3161 (  4456 PWs)   bands (ev):

   -31.5247 -31.5080 -13.4899 -13.4340 -13.0142 -12.9289 -12.8801 -12.8214
     4.8315   5.3253   5.5818   5.8759

          k = 0.0835-0.4337 0.0632 (  4457 PWs)   bands (ev):

   -31.5649 -31.4768 -13.3679 -13.2148 -13.1030 -13.0699 -12.9205 -12.8030
     3.3730   5.2975   5.8545   6.7852

          k = 0.0835-0.4337 0.1897 (  4463 PWs)   bands (ev):

   -31.5533 -31.4884 -13.4507 -13.2706 -13.0750 -13.0109 -12.8537 -12.8250
     3.6647   5.2649   5.9663   6.5088

          k = 0.0835-0.4337 0.3161 (  4465 PWs)   bands (ev):

   -31.5327 -31.5087 -13.4648 -13.3981 -13.0010 -12.9212 -12.8875 -12.8200
     4.1902   4.8228   6.1893   6.3740

          k = 0.0835-0.2410 0.0632 (  4455 PWs)   bands (ev):

   -31.6097 -31.4611 -13.4818 -13.0838 -13.0490 -12.9420 -12.8218 -12.7951
     2.0096   5.0088   6.9973   7.4476

          k = 0.0835-0.2410 0.1897 (  4451 PWs)   bands (ev):

   -31.5897 -31.4809 -13.4527 -13.1077 -13.0068 -12.9990 -12.8288 -12.7943
     2.3659   4.5763   7.1273   7.5642

          k = 0.0835-0.2410 0.3161 (  4461 PWs)   bands (ev):

   -31.5556 -31.5158 -13.3766 -13.2519 -12.9512 -12.9120 -12.8846 -12.8286
     3.0120   3.8187   7.4318   7.6228

          k = 0.0835-0.0482 0.0632 (  4438 PWs)   bands (ev):

   -31.6358 -31.4552 -13.5560 -12.9973 -12.9878 -12.8303 -12.7908 -12.7803
     1.3000   4.6822   7.1521   8.9801

          k = 0.0835-0.0482 0.1897 (  4444 PWs)   bands (ev):

   -31.6122 -31.4798 -13.4715 -12.9678 -12.9616 -12.9449 -12.8173 -12.8030
     1.6904   4.1224   7.5916   9.0208

          k = 0.0835-0.0482 0.3161 (  4463 PWs)   bands (ev):

   -31.5708 -31.5230 -13.3177 -13.1265 -12.9160 -12.9132 -12.8632 -12.8530
     2.3937   3.2704   8.2796   8.8508

          k = 0.2504 0.4337 0.0632 (  4438 PWs)   bands (ev):

   -31.5472 -31.4855 -13.3112 -13.2475 -13.1126 -13.0965 -12.9494 -12.8451
     3.8342   5.3414   5.5903   6.7490

          k = 0.2504 0.4337 0.1897 (  4447 PWs)   bands (ev):

   -31.5394 -31.4933 -13.4143 -13.3092 -13.1446 -12.9687 -12.8916 -12.8388
     4.1058   5.4045   5.7835   6.3967

          k = 0.2504 0.4337 0.3161 (  4456 PWs)   bands (ev):

   -31.5248 -31.5079 -13.4547 -13.4135 -13.0750 -12.9821 -12.8462 -12.8009
     4.5882   5.1393   6.0397   6.1793

          k = 0.2504 0.6265 0.0632 (  4445 PWs)   bands (ev):

   -31.5299 -31.4974 -13.2879 -13.2411 -13.1567 -13.0826 -12.9948 -12.8588
     4.4465   5.0797   5.3641   6.7246

          k = 0.2504 0.6265 0.1897 (  4465 PWs)   bands (ev):

   -31.5259 -31.5020 -13.3968 -13.3290 -13.1909 -12.9366 -12.9116 -12.8608
     4.6799   5.3023   5.5296   6.3409

          k = 0.2504 0.6265 0.3161 (  4445 PWs)   bands (ev):

   -31.5173 -31.5088 -13.4561 -13.4311 -13.1070 -13.0050 -12.8280 -12.8021
     5.0906   5.4866   5.6935   5.8961

          k = 0.2504-0.3373 0.0632 (  4452 PWs)   bands (ev):

   -31.5683 -31.4752 -13.3686 -13.2017 -13.1186 -13.0436 -12.9048 -12.8216
     3.1998   5.3147   6.0683   6.8046

          k = 0.2504-0.3373 0.1897 (  4451 PWs)   bands (ev):

   -31.5560 -31.4871 -13.4345 -13.2623 -13.0872 -12.9978 -12.8661 -12.8183
     3.5011   5.2019   6.2304   6.5697

          k = 0.2504-0.3373 0.3161 (  4459 PWs)   bands (ev):

   -31.5345 -31.5087 -13.4444 -13.3793 -13.0259 -12.9451 -12.8714 -12.8075
     4.0447   4.7028   6.4364   6.5208

          k = 0.2504-0.1446 0.0632 (  4443 PWs)   bands (ev):

   -31.6015 -31.4628 -13.4605 -13.1230 -13.0404 -12.9811 -12.8392 -12.7899
     2.2279   5.0882   6.9469   7.1120

          k = 0.2504-0.1446 0.1897 (  4460 PWs)   bands (ev):

   -31.5834 -31.4820 -13.4513 -13.1419 -13.0202 -13.0073 -12.8240 -12.8032
     2.5737   4.7053   6.9826   7.2512

          k = 0.2504-0.1446 0.3161 (  4463 PWs)   bands (ev):

   -31.5514 -31.5142 -13.3960 -13.2844 -12.9497 -12.9169 -12.8826 -12.8321
     3.2012   3.9838   7.2060   7.3414

          k = 0.4174 0.7229 0.0632 (  4461 PWs)   bands (ev):

   -31.5378 -31.4926 -13.3276 -13.2112 -13.1511 -13.0939 -12.9817 -12.8330
     4.5052   4.7433   5.5095   6.7239

          k = 0.4174 0.7229 0.1897 (  4455 PWs)   bands (ev):

   -31.5314 -31.4980 -13.4336 -13.3151 -13.1509 -12.9608 -12.8974 -12.8446
     4.7177   5.0134   5.6325   6.2957

          k = 0.4174 0.7229 0.3161 (  4452 PWs)   bands (ev):

   -31.5206 -31.5081 -13.4762 -13.4340 -13.0677 -12.9727 -12.8487 -12.8072
     5.1162   5.3821   5.6803   5.7243

          k = 0.4174-0.2410 0.0632 (  4464 PWs)   bands (ev):

   -31.5576 -31.4808 -13.3652 -13.2174 -13.1111 -13.0878 -12.9401 -12.7939
     3.7003   5.1662   5.6422   6.7549

          k = 0.4174-0.2410 0.1897 (  4458 PWs)   bands (ev):

   -31.5470 -31.4907 -13.4639 -13.2891 -13.0492 -13.0376 -12.8471 -12.8341
     3.9749   5.3147   5.6685   6.3885

          k = 0.4174-0.2410 0.3161 (  4456 PWs)   bands (ev):

   -31.5290 -31.5080 -13.4851 -13.4211 -12.9819 -12.9032 -12.9031 -12.8324
     4.4669   5.0492   5.8575   6.1250

!    total energy              =    -151.47514529 Ry
     Harris-Foulkes estimate   =    -151.47514529 Ry
     estimated scf accuracy    <          4.5E-09 Ry

     The total energy is the sum of the following terms:

     one-electron contribution =     -44.10912762 Ry
     hartree contribution      =      28.62721570 Ry
     xc contribution           =     -23.69649641 Ry
     ewald contribution        =    -112.29673696 Ry

     convergence has been achieved in  12 iterations

     Forces acting on atoms (Ry/au):

     atom    1 type  2   force =     0.00000000    0.00000000   -0.00000000
     atom    2 type  2   force =    -0.00000000   -0.00000000    0.00000000
     atom    3 type  1   force =    -0.00000000    0.00000000    0.00000000
     atom    4 type  1   force =     0.00000000   -0.00000000   -0.00000000
     atom    5 type  1   force =     0.00000000    0.00000000    0.00000000
     atom    6 type  1   force =    -0.00000000    0.00000000   -0.00000000

     Total force =     0.000000     Total SCF correction =     0.000000


     entering subroutine stress ...

          total   stress  (Ry/bohr**3)                   (kbar)     P=  200.42
   0.00136116  -0.00000000   0.00000000        200.23     -0.00      0.00
   0.00000000   0.00136116  -0.00000000          0.00    200.23     -0.00
   0.00000000  -0.00000000   0.00136492          0.00     -0.00    200.79


     Writing output data file CaH2_ambient.save

     init_run     :     39.68s CPU     39.95s WALL (       2 calls)
     electrons    :    432.88s CPU    438.90s WALL (       6 calls)
     update_pot   :    163.40s CPU    164.48s WALL (       4 calls)
     forces       :     71.35s CPU     71.59s WALL (       6 calls)
     stress       :    153.45s CPU    154.10s WALL (       6 calls)

     Called by init_run:
     wfcinit      :      7.74s CPU      7.80s WALL (       2 calls)
     potinit      :     14.48s CPU     14.55s WALL (       2 calls)

     Called by electrons:
     c_bands      :    351.16s CPU    355.46s WALL (      43 calls)
     sum_band     :     70.64s CPU     71.87s WALL (      43 calls)
     v_of_rho     :      6.37s CPU      6.51s WALL (      45 calls)
     mix_rho      :      5.27s CPU      5.58s WALL (      43 calls)

     Called by c_bands:
     init_us_2    :     10.51s CPU     11.34s WALL (    3600 calls)
     cegterg      :    345.73s CPU    347.82s WALL (    1548 calls)

     Called by *egterg:
     h_psi        :    288.55s CPU    290.01s WALL (    4574 calls)
     g_psi        :      2.05s CPU      2.06s WALL (    2954 calls)
     cdiaghg      :      1.97s CPU      2.00s WALL (    4214 calls)

     Called by h_psi:
     add_vuspsi   :      4.33s CPU      4.36s WALL (    4574 calls)

     General routines
     calbec       :      4.66s CPU      4.72s WALL (    5006 calls)
     fft          :      1.89s CPU      1.88s WALL (     549 calls)
     ffts         :      2.25s CPU      2.25s WALL (     665 calls)
     fftw         :    274.25s CPU    275.19s WALL (  115488 calls)
     davcio       :      1.24s CPU      3.52s WALL (    5148 calls)


     PWSCF        : 14m21.52s CPU    14m29.85s WALL


   This run was terminated on:  15:42:42   3Jun2014            

=------------------------------------------------------------------------------=
   JOB DONE.
=------------------------------------------------------------------------------=
