
     Program PWSCF v.5.0.2 (svn rev. 9392) starts on 22Apr2014 at 10:47:49 

     This program is part of the open-source Quantum ESPRESSO suite
     for quantum simulation of materials; please cite
         "P. Giannozzi et al., J. Phys.:Condens. Matter 21 395502 (2009);
          URL http://www.quantum-espresso.org", 
     in publications or presentations arising from this work. More details at
     http://www.quantum-espresso.org/quote.php

     Serial version

     Current dimensions of program PWSCF are:
     Max number of different atomic species (ntypx) = 10
     Max number of k-points (npk) =  40000
     Max angular momentum in pseudopotentials (lmaxx) =  3
     Waiting for input...
     Reading input from standard input

     G-vector sticks info
     --------------------
     sticks:   dense  smooth     PW     G-vecs:    dense   smooth      PW
     Sum         697     697    213                13997    13997    2325



     bravais-lattice index     =            1
     lattice parameter (alat)  =       5.2600  a.u.
     unit-cell volume          =     145.5316 (a.u.)^3
     number of atoms/cell      =            6
     number of atomic types    =            2
     number of electrons       =        16.00
     number of Kohn-Sham states=            8
     kinetic-energy cutoff     =      80.0000  Ry
     charge density cutoff     =     320.0000  Ry
     convergence threshold     =      1.0E-06
     mixing beta               =       0.3000
     number of iterations used =           16  local-TF  mixing
     Exchange-correlation      = PBE ( 1 4 3 4 0)
     EXX-fraction              =        0.00
     nstep                     =           50


     celldm(1)=   5.260000  celldm(2)=   0.000000  celldm(3)=   0.000000
     celldm(4)=   0.000000  celldm(5)=   0.000000  celldm(6)=   0.000000

     crystal axes: (cart. coord. in units of alat)
               a(1) = (   1.000000   0.000000   0.000000 )  
               a(2) = (   0.000000   1.000000   0.000000 )  
               a(3) = (   0.000000   0.000000   1.000000 )  

     reciprocal axes: (cart. coord. in units 2 pi/alat)
               b(1) = (  1.000000  0.000000  0.000000 )  
               b(2) = (  0.000000  1.000000  0.000000 )  
               b(3) = (  0.000000  0.000000  1.000000 )  


     PseudoPot. # 1 for H  read from file:
     /home/ilia/espresso/pseudo/H.pbe-sp-mt.ncpp
     MD5 check sum: 7a641936b52ccecd26bd1ad87cca5aed
     Pseudo is Norm-conserving, Zval =  1.0
     Generated by old ld1 code (numerical format)
     Using radial grid of 1076 points,  0 beta functions with: 

     PseudoPot. # 2 for O  read from file:
     /home/ilia/espresso/pseudo/O.pbe-sp-mt.ncpp
     MD5 check sum: 8a3d23d410d2f3ebfd0a39faacc72cbb
     Pseudo is Norm-conserving, Zval =  6.0
     Generated by old ld1 code (numerical format)
     Using radial grid of 1130 points,  1 beta functions with: 
                l(1) =   1

     atomic species   valence    mass     pseudopotential
        H              1.00     1.00700     H ( 1.00)
        O              6.00    16.00000     O ( 1.00)

     48 Sym. Ops., with inversion, found (24 have fractional translation)



   Cartesian axes

     site n.     atom                  positions (alat units)
         1           O   tau(   1) = (   0.0000000   0.0000000   0.0000000  )
         2           O   tau(   2) = (   0.5000000   0.5000000   0.5000000  )
         3           H   tau(   3) = (   0.2500000   0.2500000   0.2500000  )
         4           H   tau(   4) = (   0.7500000   0.7500000   0.2500000  )
         5           H   tau(   5) = (   0.2500000   0.7500000   0.7500000  )
         6           H   tau(   6) = (   0.7500000   0.2500000   0.7500000  )

     number of k points=    10
                       cart. coord. in units 2pi/alat
        k(    1) = (   0.0833333   0.0833333   0.0833333), wk =   0.0740741
        k(    2) = (   0.0833333   0.0833333   0.2500000), wk =   0.2222222
        k(    3) = (   0.0833333   0.0833333   0.4166667), wk =   0.2222222
        k(    4) = (   0.0833333   0.2500000   0.2500000), wk =   0.2222222
        k(    5) = (   0.0833333   0.2500000   0.4166667), wk =   0.4444444
        k(    6) = (   0.0833333   0.4166667   0.4166667), wk =   0.2222222
        k(    7) = (   0.2500000   0.2500000   0.2500000), wk =   0.0740741
        k(    8) = (   0.2500000   0.2500000   0.4166667), wk =   0.2222222
        k(    9) = (   0.2500000   0.4166667   0.4166667), wk =   0.2222222
        k(   10) = (   0.4166667   0.4166667   0.4166667), wk =   0.0740741

     Dense  grid:    13997 G-vectors     FFT dimensions: (  30,  30,  30)

     Largest allocated arrays     est. size (Mb)     dimensions
        Kohn-Sham Wavefunctions         0.22 Mb     (   1785,    8)
        NL pseudopotentials             0.16 Mb     (   1785,    6)
        Each V/rho on FFT grid          0.41 Mb     (  27000)
        Each G-vector array             0.11 Mb     (  13997)
        G-vector shells                 0.11 Mb     (  13997)
     Largest temporary arrays     est. size (Mb)     dimensions
        Auxiliary wavefunctions         0.87 Mb     (   1785,   32)
        Each subspace H/S matrix        0.02 Mb     (  32,  32)
        Each <psi_i|beta_j> matrix      0.00 Mb     (      6,    8)
        Arrays for rho mixing           6.59 Mb     (  27000,  16)

     Initial potential from superposition of free atoms

     starting charge   15.99996, renormalised to   16.00000
     Starting wfc are   12 randomized atomic wfcs

     total cpu time spent up to now is       11.6 secs

     per-process dynamical memory:     6.9 Mb

     Self-consistent Calculation

     iteration #  1     ecut=    80.00 Ry     beta=0.30
     Davidson diagonalization with overlap
     ethr =  1.00E-02,  avg # of iterations =  2.0

     total cpu time spent up to now is       12.2 secs

     total energy              =     -68.63866510 Ry
     Harris-Foulkes estimate   =     -68.71565013 Ry
     estimated scf accuracy    <       0.36796887 Ry

     iteration #  2     ecut=    80.00 Ry     beta=0.30
     Davidson diagonalization with overlap
     ethr =  2.30E-03,  avg # of iterations =  1.0

     total cpu time spent up to now is       12.7 secs

     total energy              =     -68.57090435 Ry
     Harris-Foulkes estimate   =     -68.64741779 Ry
     estimated scf accuracy    <       0.16454180 Ry

     iteration #  3     ecut=    80.00 Ry     beta=0.30
     Davidson diagonalization with overlap
     ethr =  1.03E-03,  avg # of iterations =  2.0

     total cpu time spent up to now is       13.3 secs

     total energy              =     -68.60811439 Ry
     Harris-Foulkes estimate   =     -68.60770072 Ry
     estimated scf accuracy    <       0.01008474 Ry

     iteration #  4     ecut=    80.00 Ry     beta=0.30
     Davidson diagonalization with overlap
     ethr =  6.30E-05,  avg # of iterations =  1.0

     total cpu time spent up to now is       13.8 secs

     total energy              =     -68.60610777 Ry
     Harris-Foulkes estimate   =     -68.60817475 Ry
     estimated scf accuracy    <       0.01214962 Ry

     iteration #  5     ecut=    80.00 Ry     beta=0.30
     Davidson diagonalization with overlap
     ethr =  6.30E-05,  avg # of iterations =  2.0

     total cpu time spent up to now is       14.4 secs

     total energy              =     -68.60739087 Ry
     Harris-Foulkes estimate   =     -68.60816231 Ry
     estimated scf accuracy    <       0.00135999 Ry

     iteration #  6     ecut=    80.00 Ry     beta=0.30
     Davidson diagonalization with overlap
     ethr =  8.50E-06,  avg # of iterations =  2.0

     total cpu time spent up to now is       15.0 secs

     total energy              =     -68.60772183 Ry
     Harris-Foulkes estimate   =     -68.60771763 Ry
     estimated scf accuracy    <       0.00001940 Ry

     iteration #  7     ecut=    80.00 Ry     beta=0.30
     Davidson diagonalization with overlap
     ethr =  1.21E-07,  avg # of iterations =  2.0

     total cpu time spent up to now is       15.7 secs

     total energy              =     -68.60772901 Ry
     Harris-Foulkes estimate   =     -68.60772890 Ry
     estimated scf accuracy    <       0.00000126 Ry

     iteration #  8     ecut=    80.00 Ry     beta=0.30
     Davidson diagonalization with overlap
     ethr =  7.90E-09,  avg # of iterations =  2.0

     total cpu time spent up to now is       16.2 secs

     End of self-consistent calculation

          k = 0.0833 0.0833 0.0833 (  1785 PWs)   bands (ev):

   -15.9744  -9.9064  -0.7572  -0.7572   0.1611   5.0742   6.0538   6.0538

          k = 0.0833 0.0833 0.2500 (  1761 PWs)   bands (ev):

   -15.2710 -10.7662  -1.2325  -0.2469   0.9812   3.4579   5.3392   5.7580

          k = 0.0833 0.0833 0.4167 (  1757 PWs)   bands (ev):

   -13.9641 -12.3014  -0.8650   0.4405   0.8655   2.6412   4.4309   5.0664

          k = 0.0833 0.2500 0.2500 (  1763 PWs)   bands (ev):

   -14.6206 -11.1300  -2.2230  -0.3734   1.3037   3.0784   5.0187   5.8908

          k = 0.0833 0.2500 0.4167 (  1759 PWs)   bands (ev):

   -13.4569 -12.0978  -2.3949  -1.3164   1.4406   3.4675   4.7241   5.6020

          k = 0.0833 0.4167 0.4167 (  1740 PWs)   bands (ev):

   -12.6976 -12.0604  -3.3867  -2.9265   2.1418   3.5509   5.4311   5.7089

          k = 0.2500 0.2500 0.2500 (  1749 PWs)   bands (ev):

   -14.0336 -11.2760  -1.6117  -1.6117   0.0256   4.4099   4.8054   4.8054

          k = 0.2500 0.2500 0.4167 (  1758 PWs)   bands (ev):

   -13.0617 -11.8348  -2.4145  -1.0489  -0.7349   3.4645   4.7287   5.1934

          k = 0.2500 0.4167 0.4167 (  1755 PWs)   bands (ev):

   -12.5865 -11.5635  -2.7173  -2.4432  -0.1224   3.1110   4.2903   4.6543

          k = 0.4167 0.4167 0.4167 (  1760 PWs)   bands (ev):

   -12.4364 -11.0119  -1.9000  -1.7255  -1.7255   2.6263   2.6263   3.3514

!    total energy              =     -68.60772912 Ry
     Harris-Foulkes estimate   =     -68.60772915 Ry
     estimated scf accuracy    <       0.00000006 Ry

     The total energy is the sum of the following terms:

     one-electron contribution =      -9.12236672 Ry
     hartree contribution      =      14.73132308 Ry
     xc contribution           =     -17.25647257 Ry
     ewald contribution        =     -56.96021292 Ry

     convergence has been achieved in   8 iterations

     Forces acting on atoms (Ry/au):

     atom    1 type  2   force =     0.00000000    0.00000000    0.00000000
     atom    2 type  2   force =     0.00000000    0.00000000    0.00000000
     atom    3 type  1   force =     0.00000000    0.00000000    0.00000000
     atom    4 type  1   force =     0.00000000   -0.00000000    0.00000000
     atom    5 type  1   force =    -0.00000000   -0.00000000    0.00000000
     atom    6 type  1   force =     0.00000000    0.00000000    0.00000000

     Total force =     0.000000     Total SCF correction =     0.000000


     entering subroutine stress ...

          total   stress  (Ry/bohr**3)                   (kbar)     P=  472.00
   0.00320861   0.00000000   0.00000000        472.00      0.00      0.00
   0.00000000   0.00320861   0.00000000          0.00    472.00      0.00
   0.00000000   0.00000000   0.00320861          0.00      0.00    472.00


     BFGS Geometry Optimization

     number of scf cycles    =   1
     number of bfgs steps    =   0

     enthalpy new            =     -67.9943608188 Ry

     new trust radius        =       0.0606841786 bohr
     new conv_thr            =       0.0000010000 Ry

     new unit-cell volume =    134.82437 a.u.^3 (    19.97891 Ang^3 )

CELL_PARAMETERS (alat=  5.26000000)
   0.974848327   0.000000000   0.000000000
   0.000000000   0.974848327   0.000000000
   0.000000000   0.000000000   0.974848327

ATOMIC_POSITIONS (crystal)
O        0.000000000   0.000000000   0.000000000
O        0.500000000   0.500000000   0.500000000
H        0.250000000   0.250000000   0.250000000
H        0.750000000   0.750000000   0.250000000
H        0.250000000   0.750000000   0.750000000
H        0.750000000   0.250000000   0.750000000



     Writing output data file iceX_ambient.save
     NEW-OLD atomic charge density approx. for the potential
     NEW k-points:
        k(    1) = (   0.0854834   0.0854834   0.0854834), wk =   0.0740741
        k(    2) = (   0.0854834   0.0854834   0.2564502), wk =   0.2222222
        k(    3) = (   0.0854834   0.0854834   0.4274169), wk =   0.2222222
        k(    4) = (   0.0854834   0.2564502   0.2564502), wk =   0.2222222
        k(    5) = (   0.0854834   0.2564502   0.4274169), wk =   0.4444444
        k(    6) = (   0.0854834   0.4274169   0.4274169), wk =   0.2222222
        k(    7) = (   0.2564502   0.2564502   0.2564502), wk =   0.0740741
        k(    8) = (   0.2564502   0.2564502   0.4274169), wk =   0.2222222
        k(    9) = (   0.2564502   0.4274169   0.4274169), wk =   0.2222222
        k(   10) = (   0.4274169   0.4274169   0.4274169), wk =   0.0740741
     extrapolated charge   14.72935, renormalised to   16.00000

     total cpu time spent up to now is       47.9 secs

     per-process dynamical memory:     8.5 Mb

     Self-consistent Calculation

     iteration #  1     ecut=    80.00 Ry     beta=0.30
     Davidson diagonalization with overlap
     ethr =  1.00E-06,  avg # of iterations =  4.6

     total cpu time spent up to now is       48.9 secs

     total energy              =     -68.41575218 Ry
     Harris-Foulkes estimate   =     -69.04477822 Ry
     estimated scf accuracy    <       0.16177256 Ry

     iteration #  2     ecut=    80.00 Ry     beta=0.30
     Davidson diagonalization with overlap
     ethr =  1.01E-03,  avg # of iterations =  3.0

     total cpu time spent up to now is       49.5 secs

     total energy              =     -68.56477029 Ry
     Harris-Foulkes estimate   =     -68.56905773 Ry
     estimated scf accuracy    <       0.02421823 Ry

     iteration #  3     ecut=    80.00 Ry     beta=0.30
     Davidson diagonalization with overlap
     ethr =  1.51E-04,  avg # of iterations =  1.0

     total cpu time spent up to now is       50.0 secs

     total energy              =     -68.55554906 Ry
     Harris-Foulkes estimate   =     -68.56513073 Ry
     estimated scf accuracy    <       0.01380652 Ry

     iteration #  4     ecut=    80.00 Ry     beta=0.30
     Davidson diagonalization with overlap
     ethr =  8.63E-05,  avg # of iterations =  2.0

     total cpu time spent up to now is       50.6 secs

     total energy              =     -68.56098848 Ry
     Harris-Foulkes estimate   =     -68.56214510 Ry
     estimated scf accuracy    <       0.00417746 Ry

     iteration #  5     ecut=    80.00 Ry     beta=0.30
     Davidson diagonalization with overlap
     ethr =  2.61E-05,  avg # of iterations =  1.0

     total cpu time spent up to now is       51.1 secs

     total energy              =     -68.56050540 Ry
     Harris-Foulkes estimate   =     -68.56113834 Ry
     estimated scf accuracy    <       0.00143974 Ry

     iteration #  6     ecut=    80.00 Ry     beta=0.30
     Davidson diagonalization with overlap
     ethr =  9.00E-06,  avg # of iterations =  2.0

     total cpu time spent up to now is       51.6 secs

     total energy              =     -68.56071041 Ry
     Harris-Foulkes estimate   =     -68.56073620 Ry
     estimated scf accuracy    <       0.00004131 Ry

     iteration #  7     ecut=    80.00 Ry     beta=0.30
     Davidson diagonalization with overlap
     ethr =  2.58E-07,  avg # of iterations =  3.0

     total cpu time spent up to now is       52.3 secs

     total energy              =     -68.56071954 Ry
     Harris-Foulkes estimate   =     -68.56073655 Ry
     estimated scf accuracy    <       0.00003697 Ry

     iteration #  8     ecut=    80.00 Ry     beta=0.30
     Davidson diagonalization with overlap
     ethr =  2.31E-07,  avg # of iterations =  2.0

     total cpu time spent up to now is       52.9 secs

     End of self-consistent calculation

          k = 0.0855 0.0855 0.0855 (  1785 PWs)   bands (ev):

   -15.7958  -8.9180  -0.1823  -0.1823   0.8507   6.1577   7.1635   7.1635

          k = 0.0855 0.0855 0.2565 (  1761 PWs)   bands (ev):

   -15.0241  -9.9308  -0.6744   0.3735   1.7715   4.4586   6.3651   6.8388

          k = 0.0855 0.0855 0.4274 (  1757 PWs)   bands (ev):

   -13.5777 -11.7058  -0.2206   1.1299   1.7035   3.5787   5.3510   6.0717

          k = 0.0855 0.2565 0.2565 (  1763 PWs)   bands (ev):

   -14.3033 -10.3297  -1.7855   0.2689   2.1405   4.0111   6.0104   6.9732

          k = 0.0855 0.2565 0.4274 (  1759 PWs)   bands (ev):

   -12.9984 -11.4476  -1.9304  -0.7145   2.2408   4.3933   5.7052   6.6590

          k = 0.0855 0.4274 0.4274 (  1740 PWs)   bands (ev):

   -12.1108 -11.3808  -3.0462  -2.5053   2.9895   4.4525   6.4724   6.7657

          k = 0.2565 0.2565 0.2565 (  1749 PWs)   bands (ev):

   -13.6445 -10.4841  -1.1221  -1.1221   0.7944   5.4366   5.7596   5.7596

          k = 0.2565 0.2565 0.4274 (  1758 PWs)   bands (ev):

   -12.5318 -11.1412  -1.9584  -0.4052  -0.1611   4.2681   5.7368   6.2049

          k = 0.2565 0.4274 0.4274 (  1755 PWs)   bands (ev):

   -11.9501 -10.8305  -2.3224  -1.9862   0.5387   3.8892   5.1833   5.6075

          k = 0.4274 0.4274 0.4274 (  1760 PWs)   bands (ev):

   -11.7524 -10.1895  -1.4024  -1.2389  -1.2389   3.3389   3.3389   4.1508

!    total energy              =     -68.56072430 Ry
     Harris-Foulkes estimate   =     -68.56072472 Ry
     estimated scf accuracy    <       0.00000058 Ry

     The total energy is the sum of the following terms:

     one-electron contribution =      -6.83652516 Ry
     hartree contribution      =      14.13212146 Ry
     xc contribution           =     -17.42649996 Ry
     ewald contribution        =     -58.42982063 Ry

     convergence has been achieved in   8 iterations

     Forces acting on atoms (Ry/au):

     atom    1 type  2   force =     0.00000000    0.00000000    0.00000000
     atom    2 type  2   force =     0.00000000    0.00000000    0.00000000
     atom    3 type  1   force =    -0.00000000   -0.00000000    0.00000000
     atom    4 type  1   force =     0.00000000    0.00000000    0.00000000
     atom    5 type  1   force =     0.00000000    0.00000000   -0.00000000
     atom    6 type  1   force =     0.00000000    0.00000000   -0.00000000

     Total force =     0.000000     Total SCF correction =     0.000000


     entering subroutine stress ...

          total   stress  (Ry/bohr**3)                   (kbar)     P=  833.66
   0.00566707   0.00000000   0.00000000        833.66      0.00      0.00
   0.00000000   0.00566707   0.00000000          0.00    833.66      0.00
   0.00000000   0.00000000   0.00566707          0.00      0.00    833.66


     number of scf cycles    =   2
     number of bfgs steps    =   1

     enthalpy old            =     -67.9943608188 Ry
     enthalpy new            =     -67.9924834113 Ry

     CASE: enthalpy_new > enthalpy_old

     new trust radius        =       0.0256065911 bohr
     new conv_thr            =       0.0000010000 Ry

     new unit-cell volume =    140.88881 a.u.^3 (    20.87757 Ang^3 )

CELL_PARAMETERS (alat=  5.26000000)
   0.989250837   0.000000000   0.000000000
   0.000000000   0.989250837   0.000000000
   0.000000000   0.000000000   0.989250837

ATOMIC_POSITIONS (crystal)
O        0.000000000   0.000000000   0.000000000
O        0.500000000   0.500000000   0.500000000
H        0.250000000   0.250000000   0.250000000
H        0.750000000   0.750000000   0.250000000
H        0.250000000   0.750000000   0.750000000
H        0.750000000   0.250000000   0.750000000



     Writing output data file iceX_ambient.save
     NEW-OLD atomic charge density approx. for the potential
     NEW k-points:
        k(    1) = (   0.0842388   0.0842388   0.0842388), wk =   0.0740741
        k(    2) = (   0.0842388   0.0842388   0.2527165), wk =   0.2222222
        k(    3) = (   0.0842388   0.0842388   0.4211942), wk =   0.2222222
        k(    4) = (   0.0842388   0.2527165   0.2527165), wk =   0.2222222
        k(    5) = (   0.0842388   0.2527165   0.4211942), wk =   0.4444444
        k(    6) = (   0.0842388   0.4211942   0.4211942), wk =   0.2222222
        k(    7) = (   0.2527165   0.2527165   0.2527165), wk =   0.0740741
        k(    8) = (   0.2527165   0.2527165   0.4211942), wk =   0.2222222
        k(    9) = (   0.2527165   0.4211942   0.4211942), wk =   0.2222222
        k(   10) = (   0.4211942   0.4211942   0.4211942), wk =   0.0740741
     extrapolated charge   16.68871, renormalised to   16.00000

     total cpu time spent up to now is       84.7 secs

     per-process dynamical memory:    12.4 Mb

     Self-consistent Calculation

     iteration #  1     ecut=    80.00 Ry     beta=0.30
     Davidson diagonalization with overlap
     ethr =  1.00E-06,  avg # of iterations =  4.0

     total cpu time spent up to now is       85.6 secs

     total energy              =     -68.54719633 Ry
     Harris-Foulkes estimate   =     -68.32639365 Ry
     estimated scf accuracy    <       0.04298094 Ry

     iteration #  2     ecut=    80.00 Ry     beta=0.30
     Davidson diagonalization with overlap
     ethr =  2.69E-04,  avg # of iterations =  3.0

     total cpu time spent up to now is       86.3 secs

     total energy              =     -68.59239145 Ry
     Harris-Foulkes estimate   =     -68.59410778 Ry
     estimated scf accuracy    <       0.01031368 Ry

     iteration #  3     ecut=    80.00 Ry     beta=0.30
     Davidson diagonalization with overlap
     ethr =  6.45E-05,  avg # of iterations =  1.0

     total cpu time spent up to now is       86.8 secs

     total energy              =     -68.58992612 Ry
     Harris-Foulkes estimate   =     -68.59251842 Ry
     estimated scf accuracy    <       0.00600827 Ry

     iteration #  4     ecut=    80.00 Ry     beta=0.30
     Davidson diagonalization with overlap
     ethr =  3.76E-05,  avg # of iterations =  2.0

     total cpu time spent up to now is       87.3 secs

     total energy              =     -68.59099917 Ry
     Harris-Foulkes estimate   =     -68.59067583 Ry
     estimated scf accuracy    <       0.00031335 Ry

     iteration #  5     ecut=    80.00 Ry     beta=0.30
     Davidson diagonalization with overlap
     ethr =  1.96E-06,  avg # of iterations =  2.0

     total cpu time spent up to now is       87.9 secs

     total energy              =     -68.59046119 Ry
     Harris-Foulkes estimate   =     -68.59109113 Ry
     estimated scf accuracy    <       0.00149460 Ry

     iteration #  6     ecut=    80.00 Ry     beta=0.30
     Davidson diagonalization with overlap
     ethr =  1.96E-06,  avg # of iterations =  2.3

     total cpu time spent up to now is       88.6 secs

     total energy              =     -68.59058911 Ry
     Harris-Foulkes estimate   =     -68.59061703 Ry
     estimated scf accuracy    <       0.00010460 Ry

     iteration #  7     ecut=    80.00 Ry     beta=0.30
     Davidson diagonalization with overlap
     ethr =  6.54E-07,  avg # of iterations =  1.0

     total cpu time spent up to now is       89.0 secs

     total energy              =     -68.59057305 Ry
     Harris-Foulkes estimate   =     -68.59059273 Ry
     estimated scf accuracy    <       0.00003758 Ry

     iteration #  8     ecut=    80.00 Ry     beta=0.30
     Davidson diagonalization with overlap
     ethr =  2.35E-07,  avg # of iterations =  2.0

     total cpu time spent up to now is       89.6 secs

     End of self-consistent calculation

          k = 0.0842 0.0842 0.0842 (  1785 PWs)   bands (ev):

   -15.8969  -9.4934  -0.5170  -0.5170   0.4482   5.5260   6.5166   6.5166

          k = 0.0842 0.0842 0.2527 (  1761 PWs)   bands (ev):

   -15.1648 -10.4154  -1.0000   0.0123   1.3098   3.8747   5.7673   6.2086

          k = 0.0842 0.0842 0.4212 (  1757 PWs)   bands (ev):

   -13.7993 -12.0493  -0.5972   0.7284   1.2134   3.0311   4.8152   5.4855

          k = 0.0842 0.2527 0.2527 (  1763 PWs)   bands (ev):

   -14.4848 -10.7944  -2.0399  -0.1052   1.6515   3.4669   5.4325   6.3423

          k = 0.0842 0.2527 0.4212 (  1759 PWs)   bands (ev):

   -13.2621 -11.8237  -2.2014  -1.0661   1.7739   3.8542   5.1328   6.0428

          k = 0.0842 0.4212 0.4212 (  1740 PWs)   bands (ev):

   -12.4500 -11.7749  -3.2441  -2.7511   2.4951   3.9274   5.8653   6.1499

          k = 0.2527 0.2527 0.2527 (  1749 PWs)   bands (ev):

   -13.8678 -10.9441  -1.4068  -1.4068   0.3445   4.8377   5.2038   5.2038

          k = 0.2527 0.2527 0.4212 (  1758 PWs)   bands (ev):

   -12.8374 -11.5431  -2.2243  -0.7821  -0.4950   3.8006   5.1496   5.6152

          k = 0.2527 0.4212 0.4212 (  1755 PWs)   bands (ev):

   -12.3190 -11.2555  -2.5519  -2.2528   0.1531   3.4364   4.6635   5.0523

          k = 0.4212 0.4212 0.4212 (  1760 PWs)   bands (ev):

   -12.1499 -10.6673  -1.6927  -1.5218  -1.5218   2.9246   2.9246   3.6857

!    total energy              =     -68.59058235 Ry
     Harris-Foulkes estimate   =     -68.59058264 Ry
     estimated scf accuracy    <       0.00000058 Ry

     The total energy is the sum of the following terms:

     one-electron contribution =      -8.15888367 Ry
     hartree contribution      =      14.47459801 Ry
     xc contribution           =     -17.32715622 Ry
     ewald contribution        =     -57.57914046 Ry

     convergence has been achieved in   8 iterations

     Forces acting on atoms (Ry/au):

     atom    1 type  2   force =     0.00000000    0.00000000    0.00000000
     atom    2 type  2   force =     0.00000000    0.00000000    0.00000000
     atom    3 type  1   force =    -0.00000000   -0.00000000    0.00000000
     atom    4 type  1   force =     0.00000000    0.00000000   -0.00000000
     atom    5 type  1   force =     0.00000000    0.00000000    0.00000000
     atom    6 type  1   force =     0.00000000    0.00000000    0.00000000

     Total force =     0.000000     Total SCF correction =     0.000000


     entering subroutine stress ...

          total   stress  (Ry/bohr**3)                   (kbar)     P=  616.25
   0.00418919   0.00000000   0.00000000        616.25      0.00      0.00
   0.00000000   0.00418919   0.00000000          0.00    616.25      0.00
   0.00000000   0.00000000   0.00418919          0.00      0.00    616.25


     number of scf cycles    =   3
     number of bfgs steps    =   1

     enthalpy old            =     -67.9943608188 Ry
     enthalpy new            =     -67.9967817789 Ry

     CASE: enthalpy_new < enthalpy_old

     new trust radius        =       0.0006557038 bohr
     new conv_thr            =       0.0000000100 Ry

     new unit-cell volume =    140.77210 a.u.^3 (    20.86027 Ang^3 )

CELL_PARAMETERS (alat=  5.26000000)
   0.988977596   0.000000000   0.000000000
   0.000000000   0.988977596   0.000000000
   0.000000000   0.000000000   0.988977596

ATOMIC_POSITIONS (crystal)
O        0.000000000   0.000000000   0.000000000
O        0.500000000   0.500000000   0.500000000
H        0.250000000   0.250000000   0.250000000
H        0.750000000   0.750000000   0.250000000
H        0.250000000   0.750000000   0.750000000
H        0.750000000   0.250000000   0.750000000



     Writing output data file iceX_ambient.save
     NEW-OLD atomic charge density approx. for the potential
     NEW k-points:
        k(    1) = (   0.0842621   0.0842621   0.0842621), wk =   0.0740741
        k(    2) = (   0.0842621   0.0842621   0.2527863), wk =   0.2222222
        k(    3) = (   0.0842621   0.0842621   0.4213105), wk =   0.2222222
        k(    4) = (   0.0842621   0.2527863   0.2527863), wk =   0.2222222
        k(    5) = (   0.0842621   0.2527863   0.4213105), wk =   0.4444444
        k(    6) = (   0.0842621   0.4213105   0.4213105), wk =   0.2222222
        k(    7) = (   0.2527863   0.2527863   0.2527863), wk =   0.0740741
        k(    8) = (   0.2527863   0.2527863   0.4213105), wk =   0.2222222
        k(    9) = (   0.2527863   0.4213105   0.4213105), wk =   0.2222222
        k(   10) = (   0.4213105   0.4213105   0.4213105), wk =   0.0740741
     extrapolated charge   15.98673, renormalised to   16.00000

     total cpu time spent up to now is      121.4 secs

     per-process dynamical memory:    12.4 Mb

     Self-consistent Calculation

     iteration #  1     ecut=    80.00 Ry     beta=0.30
     Davidson diagonalization with overlap
     ethr =  1.00E-06,  avg # of iterations =  1.0

     total cpu time spent up to now is      121.9 secs

     total energy              =     -68.59007744 Ry
     Harris-Foulkes estimate   =     -68.59539819 Ry
     estimated scf accuracy    <       0.00001614 Ry

     iteration #  2     ecut=    80.00 Ry     beta=0.30
     Davidson diagonalization with overlap
     ethr =  1.01E-07,  avg # of iterations =  3.0

     total cpu time spent up to now is      122.6 secs

     total energy              =     -68.59009082 Ry
     Harris-Foulkes estimate   =     -68.59009104 Ry
     estimated scf accuracy    <       0.00000112 Ry

     iteration #  3     ecut=    80.00 Ry     beta=0.30
     Davidson diagonalization with overlap
     ethr =  7.01E-09,  avg # of iterations =  1.0

     total cpu time spent up to now is      123.0 secs

     total energy              =     -68.59009047 Ry
     Harris-Foulkes estimate   =     -68.59009085 Ry
     estimated scf accuracy    <       0.00000061 Ry

     iteration #  4     ecut=    80.00 Ry     beta=0.30
     Davidson diagonalization with overlap
     ethr =  3.84E-09,  avg # of iterations =  2.0

     total cpu time spent up to now is      123.7 secs

     total energy              =     -68.59009065 Ry
     Harris-Foulkes estimate   =     -68.59009068 Ry
     estimated scf accuracy    <       0.00000006 Ry

     iteration #  5     ecut=    80.00 Ry     beta=0.30
     Davidson diagonalization with overlap
     ethr =  3.95E-10,  avg # of iterations =  2.0

     total cpu time spent up to now is      124.2 secs

     End of self-consistent calculation

          k = 0.0843 0.0843 0.0843 (  1785 PWs)   bands (ev):

   -15.8969  -9.4854  -0.5127  -0.5127   0.4535   5.5351   6.5258   6.5258

          k = 0.0843 0.0843 0.2528 (  1761 PWs)   bands (ev):

   -15.1641 -10.4089  -0.9958   0.0170   1.3161   3.8830   5.7757   6.2175

          k = 0.0843 0.0843 0.4213 (  1757 PWs)   bands (ev):

   -13.7972 -12.0451  -0.5922   0.7338   1.2202   3.0389   4.8226   5.4937

          k = 0.0843 0.2528 0.2528 (  1763 PWs)   bands (ev):

   -14.4834 -10.7882  -2.0369  -0.1003   1.6583   3.4745   5.4406   6.3512

          k = 0.0843 0.2528 0.4213 (  1759 PWs)   bands (ev):

   -13.2593 -11.8190  -2.1981  -1.0615   1.7803   3.8617   5.1409   6.0515

          k = 0.0843 0.4213 0.4213 (  1740 PWs)   bands (ev):

   -12.4460 -11.7700  -3.2420  -2.7482   2.5020   3.9347   5.8739   6.1585

          k = 0.2528 0.2528 0.2528 (  1749 PWs)   bands (ev):

   -13.8657 -10.9381  -1.4033  -1.4033   0.3507   4.8462   5.2116   5.2116

          k = 0.2528 0.2528 0.4213 (  1758 PWs)   bands (ev):

   -12.8339 -11.5380  -2.2211  -0.7771  -0.4906   3.8070   5.1579   5.6235

          k = 0.2528 0.4213 0.4213 (  1755 PWs)   bands (ev):

   -12.3145 -11.2500  -2.5492  -2.2496   0.1582   3.4426   4.6708   5.0601

          k = 0.4213 0.4213 0.4213 (  1760 PWs)   bands (ev):

   -12.1449 -10.6609  -1.6891  -1.5183  -1.5183   2.9302   2.9302   3.6921

!    total energy              =     -68.59009066 Ry
     Harris-Foulkes estimate   =     -68.59009066 Ry
     estimated scf accuracy    <          3.3E-09 Ry

     The total energy is the sum of the following terms:

     one-electron contribution =      -8.13599297 Ry
     hartree contribution      =      14.47058150 Ry
     xc contribution           =     -17.32963040 Ry
     ewald contribution        =     -57.59504879 Ry

     convergence has been achieved in   5 iterations

     Forces acting on atoms (Ry/au):

     atom    1 type  2   force =     0.00000000    0.00000000    0.00000000
     atom    2 type  2   force =     0.00000000    0.00000000    0.00000000
     atom    3 type  1   force =    -0.00000000    0.00000000    0.00000000
     atom    4 type  1   force =     0.00000000    0.00000000    0.00000000
     atom    5 type  1   force =     0.00000000    0.00000000    0.00000000
     atom    6 type  1   force =     0.00000000    0.00000000    0.00000000

     Total force =     0.000000     Total SCF correction =     0.000000


     entering subroutine stress ...

          total   stress  (Ry/bohr**3)                   (kbar)     P=  621.94
   0.00422784   0.00000000   0.00000000        621.94      0.00      0.00
   0.00000000   0.00422784   0.00000000          0.00    621.94      0.00
   0.00000000   0.00000000   0.00422784          0.00      0.00    621.94


     number of scf cycles    =   4
     number of bfgs steps    =   2

     enthalpy old            =     -67.9967817789 Ry
     enthalpy new            =     -67.9967820029 Ry

     CASE: enthalpy_new < enthalpy_old

     new trust radius        =       0.0002231991 bohr
     new conv_thr            =       0.0000000100 Ry

     new unit-cell volume =    140.81183 a.u.^3 (    20.86616 Ang^3 )

CELL_PARAMETERS (alat=  5.26000000)
   0.989070619   0.000000000   0.000000000
   0.000000000   0.989070619   0.000000000
   0.000000000   0.000000000   0.989070619

ATOMIC_POSITIONS (crystal)
O        0.000000000   0.000000000   0.000000000
O        0.500000000   0.500000000   0.500000000
H        0.250000000   0.250000000   0.250000000
H        0.750000000   0.750000000   0.250000000
H        0.250000000   0.750000000   0.750000000
H        0.750000000   0.250000000   0.750000000



     Writing output data file iceX_ambient.save
     NEW-OLD atomic charge density approx. for the potential
     NEW k-points:
        k(    1) = (   0.0842542   0.0842542   0.0842542), wk =   0.0740741
        k(    2) = (   0.0842542   0.0842542   0.2527625), wk =   0.2222222
        k(    3) = (   0.0842542   0.0842542   0.4212709), wk =   0.2222222
        k(    4) = (   0.0842542   0.2527625   0.2527625), wk =   0.2222222
        k(    5) = (   0.0842542   0.2527625   0.4212709), wk =   0.4444444
        k(    6) = (   0.0842542   0.4212709   0.4212709), wk =   0.2222222
        k(    7) = (   0.2527625   0.2527625   0.2527625), wk =   0.0740741
        k(    8) = (   0.2527625   0.2527625   0.4212709), wk =   0.2222222
        k(    9) = (   0.2527625   0.4212709   0.4212709), wk =   0.2222222
        k(   10) = (   0.4212709   0.4212709   0.4212709), wk =   0.0740741
     extrapolated charge   16.00451, renormalised to   16.00000

     total cpu time spent up to now is      155.9 secs

     per-process dynamical memory:    12.4 Mb

     Self-consistent Calculation

     iteration #  1     ecut=    80.00 Ry     beta=0.30
     Davidson diagonalization with overlap
     ethr =  1.00E-06,  avg # of iterations =  1.0

     Threshold (ethr) on eigenvalues was too large:
     Diagonalizing with lowered threshold

     Davidson diagonalization with overlap
     ethr =  8.75E-09,  avg # of iterations =  2.0

     total cpu time spent up to now is      156.8 secs

     total energy              =     -68.59025660 Ry
     Harris-Foulkes estimate   =     -68.58845272 Ry
     estimated scf accuracy    <       0.00000196 Ry

     iteration #  2     ecut=    80.00 Ry     beta=0.30
     Davidson diagonalization with overlap
     ethr =  1.22E-08,  avg # of iterations =  3.0

     total cpu time spent up to now is      157.5 secs

     total energy              =     -68.59025849 Ry
     Harris-Foulkes estimate   =     -68.59025855 Ry
     estimated scf accuracy    <       0.00000036 Ry

     iteration #  3     ecut=    80.00 Ry     beta=0.30
     Davidson diagonalization with overlap
     ethr =  2.28E-09,  avg # of iterations =  1.0

     total cpu time spent up to now is      158.0 secs

     total energy              =     -68.59025839 Ry
     Harris-Foulkes estimate   =     -68.59025849 Ry
     estimated scf accuracy    <       0.00000021 Ry

     iteration #  4     ecut=    80.00 Ry     beta=0.30
     Davidson diagonalization with overlap
     ethr =  1.31E-09,  avg # of iterations =  2.0

     total cpu time spent up to now is      158.5 secs

     End of self-consistent calculation

          k = 0.0843 0.0843 0.0843 (  1785 PWs)   bands (ev):

   -15.8978  -9.4893  -0.5150  -0.5150   0.4508   5.5309   6.5215   6.5215

          k = 0.0843 0.0843 0.2528 (  1761 PWs)   bands (ev):

   -15.1652 -10.4122  -0.9981   0.0145   1.3130   3.8791   5.7717   6.2133

          k = 0.0843 0.0843 0.4213 (  1757 PWs)   bands (ev):

   -13.7988 -12.0475  -0.5948   0.7311   1.2170   3.0353   4.8190   5.4898

          k = 0.0843 0.2528 0.2528 (  1763 PWs)   bands (ev):

   -14.4848 -10.7913  -2.0386  -0.1028   1.6550   3.4709   5.4368   6.3470

          k = 0.0843 0.2528 0.4213 (  1759 PWs)   bands (ev):

   -13.2612 -11.8216  -2.2000  -1.0639   1.7772   3.8581   5.1371   6.0474

          k = 0.0843 0.4213 0.4213 (  1740 PWs)   bands (ev):

   -12.4483 -11.7727  -3.2434  -2.7500   2.4987   3.9312   5.8698   6.1545

          k = 0.2528 0.2528 0.2528 (  1749 PWs)   bands (ev):

   -13.8673 -10.9412  -1.4053  -1.4053   0.3477   4.8422   5.2079   5.2079

          k = 0.2528 0.2528 0.4213 (  1758 PWs)   bands (ev):

   -12.8360 -11.5407  -2.2230  -0.7796  -0.4929   3.8039   5.1540   5.6196

          k = 0.2528 0.4213 0.4213 (  1755 PWs)   bands (ev):

   -12.3170 -11.2529  -2.5509  -2.2514   0.1556   3.4396   4.6673   5.0564

          k = 0.4213 0.4213 0.4213 (  1760 PWs)   bands (ev):

   -12.1476 -10.6641  -1.6911  -1.5203  -1.5203   2.9274   2.9274   3.6890

!    total energy              =     -68.59025842 Ry
     Harris-Foulkes estimate   =     -68.59025843 Ry
     estimated scf accuracy    <          2.0E-09 Ry

     The total energy is the sum of the following terms:

     one-electron contribution =      -8.14445076 Ry
     hartree contribution      =      14.47284056 Ry
     xc contribution           =     -17.32901630 Ry
     ewald contribution        =     -57.58963192 Ry

     convergence has been achieved in   4 iterations

     Forces acting on atoms (Ry/au):

     atom    1 type  2   force =     0.00000000    0.00000000    0.00000000
     atom    2 type  2   force =     0.00000000    0.00000000    0.00000000
     atom    3 type  1   force =     0.00000000    0.00000000    0.00000000
     atom    4 type  1   force =     0.00000000    0.00000000    0.00000000
     atom    5 type  1   force =     0.00000000    0.00000000    0.00000000
     atom    6 type  1   force =     0.00000000    0.00000000    0.00000000

     Total force =     0.000000     Total SCF correction =     0.000000


     entering subroutine stress ...

          total   stress  (Ry/bohr**3)                   (kbar)     P=  620.64
   0.00421906   0.00000000   0.00000000        620.64      0.00      0.00
   0.00000000   0.00421906   0.00000000          0.00    620.64      0.00
   0.00000000   0.00000000   0.00421906          0.00      0.00    620.64


     number of scf cycles    =   5
     number of bfgs steps    =   3

     enthalpy old            =     -67.9967820029 Ry
     enthalpy new            =     -67.9967823278 Ry

     CASE: enthalpy_new < enthalpy_old

     new trust radius        =       0.0001114106 bohr
     new conv_thr            =       0.0000000100 Ry

     new unit-cell volume =    140.83166 a.u.^3 (    20.86910 Ang^3 )

CELL_PARAMETERS (alat=  5.26000000)
   0.989117050   0.000000000   0.000000000
   0.000000000   0.989117050   0.000000000
   0.000000000   0.000000000   0.989117050

ATOMIC_POSITIONS (crystal)
O        0.000000000   0.000000000   0.000000000
O        0.500000000   0.500000000   0.500000000
H        0.250000000   0.250000000   0.250000000
H        0.750000000   0.750000000   0.250000000
H        0.250000000   0.750000000   0.750000000
H        0.750000000   0.250000000   0.750000000



     Writing output data file iceX_ambient.save
     NEW-OLD atomic charge density approx. for the potential
     NEW k-points:
        k(    1) = (   0.0842502   0.0842502   0.0842502), wk =   0.0740741
        k(    2) = (   0.0842502   0.0842502   0.2527507), wk =   0.2222222
        k(    3) = (   0.0842502   0.0842502   0.4212511), wk =   0.2222222
        k(    4) = (   0.0842502   0.2527507   0.2527507), wk =   0.2222222
        k(    5) = (   0.0842502   0.2527507   0.4212511), wk =   0.4444444
        k(    6) = (   0.0842502   0.4212511   0.4212511), wk =   0.2222222
        k(    7) = (   0.2527507   0.2527507   0.2527507), wk =   0.0740741
        k(    8) = (   0.2527507   0.2527507   0.4212511), wk =   0.2222222
        k(    9) = (   0.2527507   0.4212511   0.4212511), wk =   0.2222222
        k(   10) = (   0.4212511   0.4212511   0.4212511), wk =   0.0740741
     extrapolated charge   16.00225, renormalised to   16.00000

     total cpu time spent up to now is      190.2 secs

     per-process dynamical memory:    12.4 Mb

     Self-consistent Calculation

     iteration #  1     ecut=    80.00 Ry     beta=0.30
     Davidson diagonalization with overlap
     ethr =  1.00E-06,  avg # of iterations =  1.0

     Threshold (ethr) on eigenvalues was too large:
     Diagonalizing with lowered threshold

     Davidson diagonalization with overlap
     ethr =  2.38E-09,  avg # of iterations =  2.0

     total cpu time spent up to now is      191.1 secs

     total energy              =     -68.59034157 Ry
     Harris-Foulkes estimate   =     -68.58944026 Ry
     estimated scf accuracy    <       0.00000053 Ry

     iteration #  2     ecut=    80.00 Ry     beta=0.30
     Davidson diagonalization with overlap
     ethr =  3.31E-09,  avg # of iterations =  3.0

     total cpu time spent up to now is      191.8 secs

     total energy              =     -68.59034205 Ry
     Harris-Foulkes estimate   =     -68.59034206 Ry
     estimated scf accuracy    <       0.00000008 Ry

     iteration #  3     ecut=    80.00 Ry     beta=0.30
     Davidson diagonalization with overlap
     ethr =  4.92E-10,  avg # of iterations =  1.0

     total cpu time spent up to now is      192.3 secs

     total energy              =     -68.59034203 Ry
     Harris-Foulkes estimate   =     -68.59034205 Ry
     estimated scf accuracy    <       0.00000004 Ry

     iteration #  4     ecut=    80.00 Ry     beta=0.30
     Davidson diagonalization with overlap
     ethr =  2.78E-10,  avg # of iterations =  2.0

     total cpu time spent up to now is      192.8 secs

     End of self-consistent calculation

          k = 0.0843 0.0843 0.0843 (  1785 PWs)   bands (ev):

   -15.8980  -9.4910  -0.5160  -0.5160   0.4496   5.5290   6.5196   6.5196

          k = 0.0843 0.0843 0.2528 (  1761 PWs)   bands (ev):

   -15.1656 -10.4136  -0.9990   0.0135   1.3116   3.8774   5.7699   6.2114

          k = 0.0843 0.0843 0.4213 (  1757 PWs)   bands (ev):

   -13.7994 -12.0485  -0.5959   0.7299   1.2155   3.0336   4.8174   5.4881

          k = 0.0843 0.2528 0.2528 (  1763 PWs)   bands (ev):

   -14.4853 -10.7927  -2.0394  -0.1039   1.6536   3.4693   5.4350   6.3451

          k = 0.0843 0.2528 0.4213 (  1759 PWs)   bands (ev):

   -13.2620 -11.8227  -2.2008  -1.0649   1.7758   3.8565   5.1353   6.0455

          k = 0.0843 0.4213 0.4213 (  1740 PWs)   bands (ev):

   -12.4493 -11.7738  -3.2440  -2.7507   2.4972   3.9296   5.8680   6.1526

          k = 0.2528 0.2528 0.2528 (  1749 PWs)   bands (ev):

   -13.8680 -10.9425  -1.4061  -1.4061   0.3464   4.8404   5.2062   5.2062

          k = 0.2528 0.2528 0.4213 (  1758 PWs)   bands (ev):

   -12.8369 -11.5419  -2.2238  -0.7807  -0.4939   3.8025   5.1522   5.6178

          k = 0.2528 0.4213 0.4213 (  1755 PWs)   bands (ev):

   -12.3181 -11.2542  -2.5515  -2.2522   0.1545   3.4382   4.6657   5.0548

          k = 0.4213 0.4213 0.4213 (  1760 PWs)   bands (ev):

   -12.1488 -10.6655  -1.6920  -1.5211  -1.5211   2.9261   2.9261   3.6876

!    total energy              =     -68.59034204 Ry
     Harris-Foulkes estimate   =     -68.59034204 Ry
     estimated scf accuracy    <          4.6E-10 Ry

     The total energy is the sum of the following terms:

     one-electron contribution =      -8.14859494 Ry
     hartree contribution      =      14.47386577 Ry
     xc contribution           =     -17.32868428 Ry
     ewald contribution        =     -57.58692858 Ry

     convergence has been achieved in   4 iterations

     Forces acting on atoms (Ry/au):

     atom    1 type  2   force =     0.00000000    0.00000000    0.00000000
     atom    2 type  2   force =     0.00000000    0.00000000    0.00000000
     atom    3 type  1   force =     0.00000000    0.00000000    0.00000000
     atom    4 type  1   force =    -0.00000000    0.00000000    0.00000000
     atom    5 type  1   force =    -0.00000000    0.00000000   -0.00000000
     atom    6 type  1   force =     0.00000000   -0.00000000    0.00000000

     Total force =     0.000000     Total SCF correction =     0.000000


     entering subroutine stress ...

          total   stress  (Ry/bohr**3)                   (kbar)     P=  619.93
   0.00421418   0.00000000   0.00000000        619.93      0.00      0.00
   0.00000000   0.00421418   0.00000000          0.00    619.93      0.00
   0.00000000   0.00000000   0.00421418          0.00      0.00    619.93


     bfgs converged in   6 scf cycles and   4 bfgs steps
     (criteria: energy < 0.10E-03, force < 0.10E-02, cell < 0.50E+00)

     End of BFGS Geometry Optimization

     Final enthalpy =     -67.9967823564 Ry
Begin final coordinates
     new unit-cell volume =    140.83166 a.u.^3 (    20.86910 Ang^3 )

CELL_PARAMETERS (alat=  5.26000000)
   0.989117050   0.000000000   0.000000000
   0.000000000   0.989117050   0.000000000
   0.000000000   0.000000000   0.989117050

ATOMIC_POSITIONS (crystal)
O        0.000000000   0.000000000   0.000000000
O        0.500000000   0.500000000   0.500000000
H        0.250000000   0.250000000   0.250000000
H        0.750000000   0.750000000   0.250000000
H        0.250000000   0.750000000   0.750000000
H        0.750000000   0.250000000   0.750000000
End final coordinates



     A final scf calculation at the relaxed structure.
     The G-vectors are recalculated for the final unit cell
     Results may differ from those at the preceding step.

     G-vector sticks info
     --------------------
     sticks:   dense  smooth     PW     G-vecs:    dense   smooth      PW
     Sum         681     681    213                13613    13613    2301



     bravais-lattice index     =            1
     lattice parameter (alat)  =       5.2600  a.u.
     unit-cell volume          =     140.8317 (a.u.)^3
     number of atoms/cell      =            6
     number of atomic types    =            2
     number of electrons       =        16.00
     number of Kohn-Sham states=            8
     kinetic-energy cutoff     =      80.0000  Ry
     charge density cutoff     =     320.0000  Ry
     convergence threshold     =      1.0E-08
     mixing beta               =       0.3000
     number of iterations used =           16  local-TF  mixing
     Exchange-correlation      = PBE ( 1 4 3 4 0)
     EXX-fraction              =        0.00

     celldm(1)=   5.260000  celldm(2)=   0.000000  celldm(3)=   0.000000
     celldm(4)=   0.000000  celldm(5)=   0.000000  celldm(6)=   0.000000

     crystal axes: (cart. coord. in units of alat)
               a(1) = (   0.989117   0.000000   0.000000 )  
               a(2) = (   0.000000   0.989117   0.000000 )  
               a(3) = (   0.000000   0.000000   0.989117 )  

     reciprocal axes: (cart. coord. in units 2 pi/alat)
               b(1) = (  1.011003  0.000000  0.000000 )  
               b(2) = (  0.000000  1.011003  0.000000 )  
               b(3) = (  0.000000  0.000000  1.011003 )  


     PseudoPot. # 1 for H  read from file:
     /home/ilia/espresso/pseudo/H.pbe-sp-mt.ncpp
     MD5 check sum: 7a641936b52ccecd26bd1ad87cca5aed
     Pseudo is Norm-conserving, Zval =  1.0
     Generated by old ld1 code (numerical format)
     Using radial grid of 1076 points,  0 beta functions with: 

     PseudoPot. # 2 for O  read from file:
     /home/ilia/espresso/pseudo/O.pbe-sp-mt.ncpp
     MD5 check sum: 8a3d23d410d2f3ebfd0a39faacc72cbb
     Pseudo is Norm-conserving, Zval =  6.0
     Generated by old ld1 code (numerical format)
     Using radial grid of 1130 points,  1 beta functions with: 
                l(1) =   1

     atomic species   valence    mass     pseudopotential
        H              1.00     1.00700     H ( 1.00)
        O              6.00    16.00000     O ( 1.00)

     48 Sym. Ops., with inversion, found (24 have fractional translation)



   Cartesian axes

     site n.     atom                  positions (alat units)
         1           O   tau(   1) = (   0.0000000   0.0000000   0.0000000  )
         2           O   tau(   2) = (   0.4945585   0.4945585   0.4945585  )
         3           H   tau(   3) = (   0.2472793   0.2472793   0.2472793  )
         4           H   tau(   4) = (   0.7418378   0.7418378   0.2472793  )
         5           H   tau(   5) = (   0.2472793   0.7418378   0.7418378  )
         6           H   tau(   6) = (   0.7418378   0.2472793   0.7418378  )

     number of k points=    10
                       cart. coord. in units 2pi/alat
        k(    1) = (   0.0842502   0.0842502   0.0842502), wk =   0.0740741
        k(    2) = (   0.0842502   0.0842502   0.2527507), wk =   0.2222222
        k(    3) = (   0.0842502   0.0842502   0.4212511), wk =   0.2222222
        k(    4) = (   0.0842502   0.2527507   0.2527507), wk =   0.2222222
        k(    5) = (   0.0842502   0.2527507   0.4212511), wk =   0.4444444
        k(    6) = (   0.0842502   0.4212511   0.4212511), wk =   0.2222222
        k(    7) = (   0.2527507   0.2527507   0.2527507), wk =   0.0740741
        k(    8) = (   0.2527507   0.2527507   0.4212511), wk =   0.2222222
        k(    9) = (   0.2527507   0.4212511   0.4212511), wk =   0.2222222
        k(   10) = (   0.4212511   0.4212511   0.4212511), wk =   0.0740741

     Dense  grid:    13613 G-vectors     FFT dimensions: (  30,  30,  30)

     Largest allocated arrays     est. size (Mb)     dimensions
        Kohn-Sham Wavefunctions         0.21 Mb     (   1716,    8)
        NL pseudopotentials             0.16 Mb     (   1716,    6)
        Each V/rho on FFT grid          0.41 Mb     (  27000)
        Each G-vector array             0.10 Mb     (  13613)
        G-vector shells                 0.00 Mb     (    186)
     Largest temporary arrays     est. size (Mb)     dimensions
        Auxiliary wavefunctions         0.84 Mb     (   1716,   32)
        Each subspace H/S matrix        0.02 Mb     (  32,  32)
        Each <psi_i|beta_j> matrix      0.00 Mb     (      6,    8)
        Arrays for rho mixing           6.59 Mb     (  27000,  16)

     Initial potential from superposition of free atoms

     starting charge   15.99996, renormalised to   16.00000
     Starting wfc are   12 randomized atomic wfcs

     Writing output data file iceX_ambient.save

     total cpu time spent up to now is      210.3 secs

     per-process dynamical memory:    10.2 Mb

     Self-consistent Calculation

     iteration #  1     ecut=    80.00 Ry     beta=0.30
     Davidson diagonalization with overlap
     ethr =  1.00E-06,  avg # of iterations =  5.5

     total cpu time spent up to now is      211.4 secs

     total energy              =     -68.62085297 Ry
     Harris-Foulkes estimate   =     -68.69866478 Ry
     estimated scf accuracy    <       0.37162470 Ry

     iteration #  2     ecut=    80.00 Ry     beta=0.30
     Davidson diagonalization with overlap
     ethr =  2.32E-03,  avg # of iterations =  1.0

     total cpu time spent up to now is      211.9 secs

     total energy              =     -68.55036412 Ry
     Harris-Foulkes estimate   =     -68.62873916 Ry
     estimated scf accuracy    <       0.16732270 Ry

     iteration #  3     ecut=    80.00 Ry     beta=0.30
     Davidson diagonalization with overlap
     ethr =  1.05E-03,  avg # of iterations =  2.0

     total cpu time spent up to now is      212.5 secs

     total energy              =     -68.58759407 Ry
     Harris-Foulkes estimate   =     -68.58657454 Ry
     estimated scf accuracy    <       0.00979890 Ry

     iteration #  4     ecut=    80.00 Ry     beta=0.30
     Davidson diagonalization with overlap
     ethr =  6.12E-05,  avg # of iterations =  1.0

     total cpu time spent up to now is      213.0 secs

     total energy              =     -68.58489959 Ry
     Harris-Foulkes estimate   =     -68.58780832 Ry
     estimated scf accuracy    <       0.01592440 Ry

     iteration #  5     ecut=    80.00 Ry     beta=0.30
     Davidson diagonalization with overlap
     ethr =  6.12E-05,  avg # of iterations =  2.0

     total cpu time spent up to now is      213.7 secs

     total energy              =     -68.58661628 Ry
     Harris-Foulkes estimate   =     -68.58675689 Ry
     estimated scf accuracy    <       0.00022124 Ry

     iteration #  6     ecut=    80.00 Ry     beta=0.30
     Davidson diagonalization with overlap
     ethr =  1.38E-06,  avg # of iterations =  2.3

     total cpu time spent up to now is      214.4 secs

     total energy              =     -68.58669112 Ry
     Harris-Foulkes estimate   =     -68.58669907 Ry
     estimated scf accuracy    <       0.00003103 Ry

     iteration #  7     ecut=    80.00 Ry     beta=0.30
     Davidson diagonalization with overlap
     ethr =  1.94E-07,  avg # of iterations =  3.0

     total cpu time spent up to now is      215.1 secs

     total energy              =     -68.58670183 Ry
     Harris-Foulkes estimate   =     -68.58670589 Ry
     estimated scf accuracy    <       0.00000825 Ry

     iteration #  8     ecut=    80.00 Ry     beta=0.30
     Davidson diagonalization with overlap
     ethr =  5.16E-08,  avg # of iterations =  2.0

     total cpu time spent up to now is      215.8 secs

     total energy              =     -68.58670331 Ry
     Harris-Foulkes estimate   =     -68.58670331 Ry
     estimated scf accuracy    <       0.00000002 Ry

     iteration #  9     ecut=    80.00 Ry     beta=0.30
     Davidson diagonalization with overlap
     ethr =  1.01E-10,  avg # of iterations =  2.0

     total cpu time spent up to now is      216.4 secs

     End of self-consistent calculation

          k = 0.0843 0.0843 0.0843 (  1716 PWs)   bands (ev):

   -15.8981  -9.4926  -0.5167  -0.5167   0.4517   5.5327   6.5264   6.5264

          k = 0.0843 0.0843 0.2528 (  1710 PWs)   bands (ev):

   -15.1664 -10.4148  -0.9983   0.0142   1.3130   3.8771   5.7722   6.2133

          k = 0.0843 0.0843 0.4213 (  1705 PWs)   bands (ev):

   -13.8003 -12.0494  -0.5953   0.7305   1.2163   3.0353   4.8183   5.4892

          k = 0.0843 0.2528 0.2528 (  1707 PWs)   bands (ev):

   -14.4862 -10.7936  -2.0381  -0.1029   1.6545   3.4715   5.4361   6.3454

          k = 0.0843 0.2528 0.4213 (  1691 PWs)   bands (ev):

   -13.2626 -11.8237  -2.1998  -1.0630   1.7779   3.8593   5.1380   6.0485

          k = 0.0843 0.4213 0.4213 (  1688 PWs)   bands (ev):

   -12.4504 -11.7750  -3.2426  -2.7505   2.4983   3.9308   5.8690   6.1547

          k = 0.2528 0.2528 0.2528 (  1713 PWs)   bands (ev):

   -13.8692 -10.9438  -1.4053  -1.4053   0.3448   4.8415   5.2053   5.2053

          k = 0.2528 0.2528 0.4213 (  1698 PWs)   bands (ev):

   -12.8377 -11.5432  -2.2230  -0.7795  -0.4931   3.8053   5.1546   5.6200

          k = 0.2528 0.4213 0.4213 (  1701 PWs)   bands (ev):

   -12.3192 -11.2554  -2.5502  -2.2519   0.1553   3.4399   4.6692   5.0553

          k = 0.4213 0.4213 0.4213 (  1691 PWs)   bands (ev):

   -12.1497 -10.6666  -1.6901  -1.5190  -1.5190   2.9285   2.9285   3.6886

!    total energy              =     -68.58670332 Ry
     Harris-Foulkes estimate   =     -68.58670332 Ry
     estimated scf accuracy    <          3.5E-09 Ry

     The total energy is the sum of the following terms:

     one-electron contribution =      -8.14239742 Ry
     hartree contribution      =      14.47113315 Ry
     xc contribution           =     -17.32851047 Ry
     ewald contribution        =     -57.58692858 Ry

     convergence has been achieved in   9 iterations

     Forces acting on atoms (Ry/au):

     atom    1 type  2   force =     0.00000000    0.00000000    0.00000000
     atom    2 type  2   force =     0.00000000    0.00000000    0.00000000
     atom    3 type  1   force =     0.00000000   -0.00000000    0.00000000
     atom    4 type  1   force =     0.00000000   -0.00000000    0.00000000
     atom    5 type  1   force =     0.00000000    0.00000000    0.00000000
     atom    6 type  1   force =     0.00000000   -0.00000000    0.00000000

     Total force =     0.000000     Total SCF correction =     0.000000


     entering subroutine stress ...

          total   stress  (Ry/bohr**3)                   (kbar)     P=  596.72
   0.00405642   0.00000000   0.00000000        596.72      0.00      0.00
   0.00000000   0.00405642   0.00000000          0.00    596.72      0.00
   0.00000000   0.00000000   0.00405642          0.00      0.00    596.72


     Writing output data file iceX_ambient.save

     init_run     :     12.84s CPU     12.91s WALL (       2 calls)
     electrons    :     27.98s CPU     28.41s WALL (       7 calls)
     update_pot   :     77.55s CPU     77.73s WALL (       5 calls)
     forces       :     32.37s CPU     32.48s WALL (       7 calls)
     stress       :     65.15s CPU     65.27s WALL (       7 calls)

     Called by init_run:
     wfcinit      :      0.61s CPU      0.62s WALL (       2 calls)
     potinit      :      5.29s CPU      5.30s WALL (       2 calls)

     Called by electrons:
     c_bands      :     19.84s CPU     20.08s WALL (      48 calls)
     sum_band     :      4.41s CPU      4.48s WALL (      48 calls)
     v_of_rho     :      2.16s CPU      2.19s WALL (      53 calls)
     mix_rho      :      1.72s CPU      1.79s WALL (      48 calls)

     Called by c_bands:
     init_us_2    :      1.24s CPU      1.35s WALL (    1120 calls)
     cegterg      :     19.16s CPU     19.32s WALL (     480 calls)

     Called by *egterg:
     h_psi        :     15.61s CPU     15.74s WALL (    1477 calls)
     g_psi        :      0.18s CPU      0.20s WALL (     977 calls)
     cdiaghg      :      0.30s CPU      0.31s WALL (    1387 calls)

     Called by h_psi:
     add_vuspsi   :      0.32s CPU      0.34s WALL (    1477 calls)

     General routines
     calbec       :      0.39s CPU      0.38s WALL (    1617 calls)
     fft          :      0.58s CPU      0.59s WALL (     641 calls)
     ffts         :      0.66s CPU      0.68s WALL (     741 calls)
     fftw         :     15.51s CPU     15.56s WALL (   26162 calls)
     davcio       :      0.15s CPU      0.18s WALL (    1600 calls)


     PWSCF        :  3m36.51s CPU     3m37.44s WALL


   This run was terminated on:  10:51:27  22Apr2014            

=------------------------------------------------------------------------------=
   JOB DONE.
=------------------------------------------------------------------------------=
