
     Program PWSCF v.5.0.2 (svn rev. 9392) starts on 22Apr2014 at 10:51:27 

     This program is part of the open-source Quantum ESPRESSO suite
     for quantum simulation of materials; please cite
         "P. Giannozzi et al., J. Phys.:Condens. Matter 21 395502 (2009);
          URL http://www.quantum-espresso.org", 
     in publications or presentations arising from this work. More details at
     http://www.quantum-espresso.org/quote.php

     Serial version

     Current dimensions of program PWSCF are:
     Max number of different atomic species (ntypx) = 10
     Max number of k-points (npk) =  40000
     Max angular momentum in pseudopotentials (lmaxx) =  3
     Waiting for input...
     Reading input from standard input

     G-vector sticks info
     --------------------
     sticks:   dense  smooth     PW     G-vecs:    dense   smooth      PW
     Sum         697     697    213                13997    13997    2325



     bravais-lattice index     =            1
     lattice parameter (alat)  =       5.2600  a.u.
     unit-cell volume          =     145.5316 (a.u.)^3
     number of atoms/cell      =            6
     number of atomic types    =            2
     number of electrons       =        16.00
     number of Kohn-Sham states=            8
     kinetic-energy cutoff     =      80.0000  Ry
     charge density cutoff     =     320.0000  Ry
     convergence threshold     =      1.0E-06
     mixing beta               =       0.3000
     number of iterations used =           16  local-TF  mixing
     Exchange-correlation      = PBE ( 1 4 3 4 0)
     EXX-fraction              =        0.00
     nstep                     =           50


     celldm(1)=   5.260000  celldm(2)=   0.000000  celldm(3)=   0.000000
     celldm(4)=   0.000000  celldm(5)=   0.000000  celldm(6)=   0.000000

     crystal axes: (cart. coord. in units of alat)
               a(1) = (   1.000000   0.000000   0.000000 )  
               a(2) = (   0.000000   1.000000   0.000000 )  
               a(3) = (   0.000000   0.000000   1.000000 )  

     reciprocal axes: (cart. coord. in units 2 pi/alat)
               b(1) = (  1.000000  0.000000  0.000000 )  
               b(2) = (  0.000000  1.000000  0.000000 )  
               b(3) = (  0.000000  0.000000  1.000000 )  


     PseudoPot. # 1 for H  read from file:
     /home/ilia/espresso/pseudo/H.pbe-sp-mt.ncpp
     MD5 check sum: 7a641936b52ccecd26bd1ad87cca5aed
     Pseudo is Norm-conserving, Zval =  1.0
     Generated by old ld1 code (numerical format)
     Using radial grid of 1076 points,  0 beta functions with: 

     PseudoPot. # 2 for O  read from file:
     /home/ilia/espresso/pseudo/O.pbe-sp-mt.ncpp
     MD5 check sum: 8a3d23d410d2f3ebfd0a39faacc72cbb
     Pseudo is Norm-conserving, Zval =  6.0
     Generated by old ld1 code (numerical format)
     Using radial grid of 1130 points,  1 beta functions with: 
                l(1) =   1

     atomic species   valence    mass     pseudopotential
        H              1.00     1.00700     H ( 1.00)
        O              6.00    16.00000     O ( 1.00)

     48 Sym. Ops., with inversion, found (24 have fractional translation)



   Cartesian axes

     site n.     atom                  positions (alat units)
         1           O   tau(   1) = (   0.0000000   0.0000000   0.0000000  )
         2           O   tau(   2) = (   0.5000000   0.5000000   0.5000000  )
         3           H   tau(   3) = (   0.2500000   0.2500000   0.2500000  )
         4           H   tau(   4) = (   0.7500000   0.7500000   0.2500000  )
         5           H   tau(   5) = (   0.2500000   0.7500000   0.7500000  )
         6           H   tau(   6) = (   0.7500000   0.2500000   0.7500000  )

     number of k points=    10
                       cart. coord. in units 2pi/alat
        k(    1) = (   0.0833333   0.0833333   0.0833333), wk =   0.0740741
        k(    2) = (   0.0833333   0.0833333   0.2500000), wk =   0.2222222
        k(    3) = (   0.0833333   0.0833333   0.4166667), wk =   0.2222222
        k(    4) = (   0.0833333   0.2500000   0.2500000), wk =   0.2222222
        k(    5) = (   0.0833333   0.2500000   0.4166667), wk =   0.4444444
        k(    6) = (   0.0833333   0.4166667   0.4166667), wk =   0.2222222
        k(    7) = (   0.2500000   0.2500000   0.2500000), wk =   0.0740741
        k(    8) = (   0.2500000   0.2500000   0.4166667), wk =   0.2222222
        k(    9) = (   0.2500000   0.4166667   0.4166667), wk =   0.2222222
        k(   10) = (   0.4166667   0.4166667   0.4166667), wk =   0.0740741

     Dense  grid:    13997 G-vectors     FFT dimensions: (  30,  30,  30)

     Largest allocated arrays     est. size (Mb)     dimensions
        Kohn-Sham Wavefunctions         0.22 Mb     (   1785,    8)
        NL pseudopotentials             0.16 Mb     (   1785,    6)
        Each V/rho on FFT grid          0.41 Mb     (  27000)
        Each G-vector array             0.11 Mb     (  13997)
        G-vector shells                 0.11 Mb     (  13997)
     Largest temporary arrays     est. size (Mb)     dimensions
        Auxiliary wavefunctions         0.87 Mb     (   1785,   32)
        Each subspace H/S matrix        0.02 Mb     (  32,  32)
        Each <psi_i|beta_j> matrix      0.00 Mb     (      6,    8)
        Arrays for rho mixing           6.59 Mb     (  27000,  16)

     Initial potential from superposition of free atoms

     starting charge   15.99996, renormalised to   16.00000
     Starting wfc are   12 randomized atomic wfcs

     total cpu time spent up to now is       12.1 secs

     per-process dynamical memory:     6.9 Mb

     Self-consistent Calculation

     iteration #  1     ecut=    80.00 Ry     beta=0.30
     Davidson diagonalization with overlap
     ethr =  1.00E-02,  avg # of iterations =  2.0

     total cpu time spent up to now is       12.7 secs

     total energy              =     -68.63866510 Ry
     Harris-Foulkes estimate   =     -68.71565013 Ry
     estimated scf accuracy    <       0.36796887 Ry

     iteration #  2     ecut=    80.00 Ry     beta=0.30
     Davidson diagonalization with overlap
     ethr =  2.30E-03,  avg # of iterations =  1.0

     total cpu time spent up to now is       13.2 secs

     total energy              =     -68.57090435 Ry
     Harris-Foulkes estimate   =     -68.64741779 Ry
     estimated scf accuracy    <       0.16454180 Ry

     iteration #  3     ecut=    80.00 Ry     beta=0.30
     Davidson diagonalization with overlap
     ethr =  1.03E-03,  avg # of iterations =  2.0

     total cpu time spent up to now is       13.8 secs

     total energy              =     -68.60811439 Ry
     Harris-Foulkes estimate   =     -68.60770072 Ry
     estimated scf accuracy    <       0.01008474 Ry

     iteration #  4     ecut=    80.00 Ry     beta=0.30
     Davidson diagonalization with overlap
     ethr =  6.30E-05,  avg # of iterations =  1.0

     total cpu time spent up to now is       14.3 secs

     total energy              =     -68.60610777 Ry
     Harris-Foulkes estimate   =     -68.60817475 Ry
     estimated scf accuracy    <       0.01214962 Ry

     iteration #  5     ecut=    80.00 Ry     beta=0.30
     Davidson diagonalization with overlap
     ethr =  6.30E-05,  avg # of iterations =  2.0

     total cpu time spent up to now is       14.9 secs

     total energy              =     -68.60739087 Ry
     Harris-Foulkes estimate   =     -68.60816231 Ry
     estimated scf accuracy    <       0.00135999 Ry

     iteration #  6     ecut=    80.00 Ry     beta=0.30
     Davidson diagonalization with overlap
     ethr =  8.50E-06,  avg # of iterations =  2.0

     total cpu time spent up to now is       15.5 secs

     total energy              =     -68.60772183 Ry
     Harris-Foulkes estimate   =     -68.60771763 Ry
     estimated scf accuracy    <       0.00001940 Ry

     iteration #  7     ecut=    80.00 Ry     beta=0.30
     Davidson diagonalization with overlap
     ethr =  1.21E-07,  avg # of iterations =  2.0

     total cpu time spent up to now is       16.1 secs

     total energy              =     -68.60772901 Ry
     Harris-Foulkes estimate   =     -68.60772890 Ry
     estimated scf accuracy    <       0.00000126 Ry

     iteration #  8     ecut=    80.00 Ry     beta=0.30
     Davidson diagonalization with overlap
     ethr =  7.90E-09,  avg # of iterations =  2.0

     total cpu time spent up to now is       16.6 secs

     End of self-consistent calculation

          k = 0.0833 0.0833 0.0833 (  1785 PWs)   bands (ev):

   -15.9744  -9.9064  -0.7572  -0.7572   0.1611   5.0742   6.0538   6.0538

          k = 0.0833 0.0833 0.2500 (  1761 PWs)   bands (ev):

   -15.2710 -10.7662  -1.2325  -0.2469   0.9812   3.4579   5.3392   5.7580

          k = 0.0833 0.0833 0.4167 (  1757 PWs)   bands (ev):

   -13.9641 -12.3014  -0.8650   0.4405   0.8655   2.6412   4.4309   5.0664

          k = 0.0833 0.2500 0.2500 (  1763 PWs)   bands (ev):

   -14.6206 -11.1300  -2.2230  -0.3734   1.3037   3.0784   5.0187   5.8908

          k = 0.0833 0.2500 0.4167 (  1759 PWs)   bands (ev):

   -13.4569 -12.0978  -2.3949  -1.3164   1.4406   3.4675   4.7241   5.6020

          k = 0.0833 0.4167 0.4167 (  1740 PWs)   bands (ev):

   -12.6976 -12.0604  -3.3867  -2.9265   2.1418   3.5509   5.4311   5.7089

          k = 0.2500 0.2500 0.2500 (  1749 PWs)   bands (ev):

   -14.0336 -11.2760  -1.6117  -1.6117   0.0256   4.4099   4.8054   4.8054

          k = 0.2500 0.2500 0.4167 (  1758 PWs)   bands (ev):

   -13.0617 -11.8348  -2.4145  -1.0489  -0.7349   3.4645   4.7287   5.1934

          k = 0.2500 0.4167 0.4167 (  1755 PWs)   bands (ev):

   -12.5865 -11.5635  -2.7173  -2.4432  -0.1224   3.1110   4.2903   4.6543

          k = 0.4167 0.4167 0.4167 (  1760 PWs)   bands (ev):

   -12.4364 -11.0119  -1.9000  -1.7255  -1.7255   2.6263   2.6263   3.3514

!    total energy              =     -68.60772912 Ry
     Harris-Foulkes estimate   =     -68.60772915 Ry
     estimated scf accuracy    <       0.00000006 Ry

     The total energy is the sum of the following terms:

     one-electron contribution =      -9.12236672 Ry
     hartree contribution      =      14.73132308 Ry
     xc contribution           =     -17.25647257 Ry
     ewald contribution        =     -56.96021292 Ry

     convergence has been achieved in   8 iterations

     Forces acting on atoms (Ry/au):

     atom    1 type  2   force =     0.00000000    0.00000000    0.00000000
     atom    2 type  2   force =     0.00000000    0.00000000    0.00000000
     atom    3 type  1   force =     0.00000000    0.00000000    0.00000000
     atom    4 type  1   force =     0.00000000   -0.00000000    0.00000000
     atom    5 type  1   force =    -0.00000000   -0.00000000    0.00000000
     atom    6 type  1   force =     0.00000000    0.00000000    0.00000000

     Total force =     0.000000     Total SCF correction =     0.000000


     entering subroutine stress ...

          total   stress  (Ry/bohr**3)                   (kbar)     P=  472.00
   0.00320861   0.00000000   0.00000000        472.00      0.00      0.00
   0.00000000   0.00320861   0.00000000          0.00    472.00      0.00
   0.00000000   0.00000000   0.00320861          0.00      0.00    472.00


     BFGS Geometry Optimization

     number of scf cycles    =   1
     number of bfgs steps    =   0

     enthalpy new            =     -67.8162861506 Ry

     new trust radius        =       0.1344904960 bohr
     new conv_thr            =       0.0000010000 Ry

     new unit-cell volume =    122.52626 a.u.^3 (    18.15652 Ang^3 )

CELL_PARAMETERS (alat=  5.26000000)
   0.944257943   0.000000000   0.000000000
   0.000000000   0.944257943   0.000000000
   0.000000000   0.000000000   0.944257943

ATOMIC_POSITIONS (crystal)
O        0.000000000   0.000000000   0.000000000
O        0.500000000   0.500000000   0.500000000
H        0.250000000   0.250000000   0.250000000
H        0.750000000   0.750000000   0.250000000
H        0.250000000   0.750000000   0.750000000
H        0.750000000   0.250000000   0.750000000



     Writing output data file iceX_ambient.save
     NEW-OLD atomic charge density approx. for the potential
     NEW k-points:
        k(    1) = (   0.0882527   0.0882527   0.0882527), wk =   0.0740741
        k(    2) = (   0.0882527   0.0882527   0.2647582), wk =   0.2222222
        k(    3) = (   0.0882527   0.0882527   0.4412636), wk =   0.2222222
        k(    4) = (   0.0882527   0.2647582   0.2647582), wk =   0.2222222
        k(    5) = (   0.0882527   0.2647582   0.4412636), wk =   0.4444444
        k(    6) = (   0.0882527   0.4412636   0.4412636), wk =   0.2222222
        k(    7) = (   0.2647582   0.2647582   0.2647582), wk =   0.0740741
        k(    8) = (   0.2647582   0.2647582   0.4412636), wk =   0.2222222
        k(    9) = (   0.2647582   0.4412636   0.4412636), wk =   0.2222222
        k(   10) = (   0.4412636   0.4412636   0.4412636), wk =   0.0740741
     extrapolated charge   12.99587, renormalised to   16.00000

     total cpu time spent up to now is       48.6 secs

     per-process dynamical memory:     8.5 Mb

     Self-consistent Calculation

     iteration #  1     ecut=    80.00 Ry     beta=0.30
     Davidson diagonalization with overlap
     ethr =  1.00E-06,  avg # of iterations =  5.0

     total cpu time spent up to now is       49.6 secs

     total energy              =     -67.76229378 Ry
     Harris-Foulkes estimate   =     -69.37911702 Ry
     estimated scf accuracy    <       0.86161850 Ry

     iteration #  2     ecut=    80.00 Ry     beta=0.30
     Davidson diagonalization with overlap
     ethr =  5.39E-03,  avg # of iterations =  3.0

     total cpu time spent up to now is       50.3 secs

     total energy              =     -68.48044937 Ry
     Harris-Foulkes estimate   =     -68.49409497 Ry
     estimated scf accuracy    <       0.07326127 Ry

     iteration #  3     ecut=    80.00 Ry     beta=0.30
     Davidson diagonalization with overlap
     ethr =  4.58E-04,  avg # of iterations =  1.0

     total cpu time spent up to now is       50.8 secs

     total energy              =     -68.45231865 Ry
     Harris-Foulkes estimate   =     -68.48170904 Ry
     estimated scf accuracy    <       0.04088353 Ry

     iteration #  4     ecut=    80.00 Ry     beta=0.30
     Davidson diagonalization with overlap
     ethr =  2.56E-04,  avg # of iterations =  2.0

     total cpu time spent up to now is       51.4 secs

     total energy              =     -68.47089311 Ry
     Harris-Foulkes estimate   =     -68.47609781 Ry
     estimated scf accuracy    <       0.02114483 Ry

     iteration #  5     ecut=    80.00 Ry     beta=0.30
     Davidson diagonalization with overlap
     ethr =  1.32E-04,  avg # of iterations =  1.0

     total cpu time spent up to now is       51.8 secs

     total energy              =     -68.46725874 Ry
     Harris-Foulkes estimate   =     -68.47144537 Ry
     estimated scf accuracy    <       0.00878986 Ry

     iteration #  6     ecut=    80.00 Ry     beta=0.30
     Davidson diagonalization with overlap
     ethr =  5.49E-05,  avg # of iterations =  2.0

     total cpu time spent up to now is       52.4 secs

     total energy              =     -68.46859024 Ry
     Harris-Foulkes estimate   =     -68.46869401 Ry
     estimated scf accuracy    <       0.00017135 Ry

     iteration #  7     ecut=    80.00 Ry     beta=0.30
     Davidson diagonalization with overlap
     ethr =  1.07E-06,  avg # of iterations =  2.0

     total cpu time spent up to now is       53.1 secs

     total energy              =     -68.46864033 Ry
     Harris-Foulkes estimate   =     -68.46867376 Ry
     estimated scf accuracy    <       0.00008583 Ry

     iteration #  8     ecut=    80.00 Ry     beta=0.30
     Davidson diagonalization with overlap
     ethr =  5.36E-07,  avg # of iterations =  1.4

     total cpu time spent up to now is       53.5 secs

     total energy              =     -68.46864162 Ry
     Harris-Foulkes estimate   =     -68.46864718 Ry
     estimated scf accuracy    <       0.00001075 Ry

     iteration #  9     ecut=    80.00 Ry     beta=0.30
     Davidson diagonalization with overlap
     ethr =  6.72E-08,  avg # of iterations =  2.0

     total cpu time spent up to now is       54.1 secs

     End of self-consistent calculation

          k = 0.0883 0.0883 0.0883 (  1785 PWs)   bands (ev):

   -15.5728  -7.5832   0.6007   0.6007   1.8011   7.6288   8.6697   8.6697

          k = 0.0883 0.0883 0.2648 (  1761 PWs)   bands (ev):

   -14.7124  -8.8220   0.0950   1.2177   2.8635   5.8236   7.7562   8.3080

          k = 0.0883 0.0883 0.4413 (  1757 PWs)   bands (ev):

   -13.0842 -10.9337   0.6724   2.0680   2.8640   4.8668   6.5952   7.4391

          k = 0.0883 0.2648 0.2648 (  1763 PWs)   bands (ev):

   -13.8998  -9.2610  -1.1901   1.1441   3.2946   5.2862   7.3550   8.4424

          k = 0.0883 0.2648 0.4413 (  1759 PWs)   bands (ev):

   -12.4078 -10.5932  -1.2869   0.1181   3.3361   5.6452   7.0450   8.0949

          k = 0.0883 0.4413 0.4413 (  1740 PWs)   bands (ev):

   -11.3398 -10.4752  -2.5811  -1.9201   4.1465   5.6735   7.8876   8.1980

          k = 0.2648 0.2648 0.2648 (  1749 PWs)   bands (ev):

   -13.1464  -9.4219  -0.4572  -0.4572   1.8632   6.8360   7.0503   7.0503

          k = 0.2648 0.2648 0.4413 (  1758 PWs)   bands (ev):

   -11.8426 -10.2228  -1.3285   0.4955   0.6182   5.3499   7.1000   7.5800

          k = 0.2648 0.4413 0.4413 (  1755 PWs)   bands (ev):

   -11.1026  -9.8566  -1.7850  -1.3534   1.4468   4.9378   6.3875   6.8967

          k = 0.4413 0.4413 0.4413 (  1760 PWs)   bands (ev):

   -10.8297  -9.0888  -0.7144  -0.5778  -0.5778   4.2968   4.2968   5.2281

!    total energy              =     -68.46864490 Ry
     Harris-Foulkes estimate   =     -68.46864493 Ry
     estimated scf accuracy    <       0.00000005 Ry

     The total energy is the sum of the following terms:

     one-electron contribution =      -3.89358638 Ry
     hartree contribution      =      13.40105408 Ry
     xc contribution           =     -17.65338689 Ry
     ewald contribution        =     -60.32272571 Ry

     convergence has been achieved in   9 iterations

     Forces acting on atoms (Ry/au):

     atom    1 type  2   force =     0.00000000    0.00000000    0.00000000
     atom    2 type  2   force =     0.00000000    0.00000000    0.00000000
     atom    3 type  1   force =     0.00000000   -0.00000000    0.00000000
     atom    4 type  1   force =    -0.00000000    0.00000000    0.00000000
     atom    5 type  1   force =     0.00000000   -0.00000000    0.00000000
     atom    6 type  1   force =     0.00000000    0.00000000   -0.00000000

     Total force =     0.000000     Total SCF correction =     0.000000


     entering subroutine stress ...

          total   stress  (Ry/bohr**3)                   (kbar)     P= 1398.17
   0.00950455   0.00000000   0.00000000       1398.17      0.00      0.00
   0.00000000   0.00950455   0.00000000          0.00   1398.17      0.00
   0.00000000   0.00000000   0.00950455          0.00      0.00   1398.17


     number of scf cycles    =   2
     number of bfgs steps    =   1

     enthalpy old            =     -67.8162861506 Ry
     enthalpy new            =     -67.8023115235 Ry

     CASE: enthalpy_new > enthalpy_old

     new trust radius        =       0.0519621294 bohr
     new conv_thr            =       0.0000010000 Ry

     new unit-cell volume =    136.06810 a.u.^3 (    20.16321 Ang^3 )

CELL_PARAMETERS (alat=  5.26000000)
   0.977836772   0.000000000   0.000000000
   0.000000000   0.977836772   0.000000000
   0.000000000   0.000000000   0.977836772

ATOMIC_POSITIONS (crystal)
O        0.000000000   0.000000000   0.000000000
O        0.500000000   0.500000000   0.500000000
H        0.250000000   0.250000000   0.250000000
H        0.750000000   0.750000000   0.250000000
H        0.250000000   0.750000000   0.750000000
H        0.750000000   0.250000000   0.750000000



     Writing output data file iceX_ambient.save
     NEW-OLD atomic charge density approx. for the potential
     NEW k-points:
        k(    1) = (   0.0852221   0.0852221   0.0852221), wk =   0.0740741
        k(    2) = (   0.0852221   0.0852221   0.2556664), wk =   0.2222222
        k(    3) = (   0.0852221   0.0852221   0.4261107), wk =   0.2222222
        k(    4) = (   0.0852221   0.2556664   0.2556664), wk =   0.2222222
        k(    5) = (   0.0852221   0.2556664   0.4261107), wk =   0.4444444
        k(    6) = (   0.0852221   0.4261107   0.4261107), wk =   0.2222222
        k(    7) = (   0.2556664   0.2556664   0.2556664), wk =   0.0740741
        k(    8) = (   0.2556664   0.2556664   0.4261107), wk =   0.2222222
        k(    9) = (   0.2556664   0.4261107   0.4261107), wk =   0.2222222
        k(   10) = (   0.4261107   0.4261107   0.4261107), wk =   0.0740741
     extrapolated charge   17.59236, renormalised to   16.00000

     total cpu time spent up to now is       86.0 secs

     per-process dynamical memory:    12.4 Mb

     Self-consistent Calculation

     iteration #  1     ecut=    80.00 Ry     beta=0.30
     Davidson diagonalization with overlap
     ethr =  1.00E-06,  avg # of iterations =  5.0

     total cpu time spent up to now is       87.0 secs

     total energy              =     -68.35361284 Ry
     Harris-Foulkes estimate   =     -68.05119989 Ry
     estimated scf accuracy    <       0.19488625 Ry

     iteration #  2     ecut=    80.00 Ry     beta=0.30
     Davidson diagonalization with overlap
     ethr =  1.22E-03,  avg # of iterations =  3.0

     total cpu time spent up to now is       87.8 secs

     total energy              =     -68.57779709 Ry
     Harris-Foulkes estimate   =     -68.58682374 Ry
     estimated scf accuracy    <       0.05544752 Ry

     iteration #  3     ecut=    80.00 Ry     beta=0.30
     Davidson diagonalization with overlap
     ethr =  3.47E-04,  avg # of iterations =  1.0

     total cpu time spent up to now is       88.2 secs

     total energy              =     -68.56689476 Ry
     Harris-Foulkes estimate   =     -68.57842687 Ry
     estimated scf accuracy    <       0.03288009 Ry

     iteration #  4     ecut=    80.00 Ry     beta=0.30
     Davidson diagonalization with overlap
     ethr =  2.06E-04,  avg # of iterations =  1.5

     total cpu time spent up to now is       88.7 secs

     total energy              =     -68.57068242 Ry
     Harris-Foulkes estimate   =     -68.56928089 Ry
     estimated scf accuracy    <       0.00549238 Ry

     iteration #  5     ecut=    80.00 Ry     beta=0.30
     Davidson diagonalization with overlap
     ethr =  3.43E-05,  avg # of iterations =  1.0

     total cpu time spent up to now is       89.2 secs

     total energy              =     -68.57237221 Ry
     Harris-Foulkes estimate   =     -68.57088749 Ry
     estimated scf accuracy    <       0.00911314 Ry

     iteration #  6     ecut=    80.00 Ry     beta=0.30
     Davidson diagonalization with overlap
     ethr =  3.43E-05,  avg # of iterations =  1.0

     total cpu time spent up to now is       89.6 secs

     total energy              =     -68.56617651 Ry
     Harris-Foulkes estimate   =     -68.57249918 Ry
     estimated scf accuracy    <       0.01401484 Ry

     iteration #  7     ecut=    80.00 Ry     beta=0.30
     Davidson diagonalization with overlap
     ethr =  3.43E-05,  avg # of iterations =  2.0

     total cpu time spent up to now is       90.2 secs

     total energy              =     -68.56767312 Ry
     Harris-Foulkes estimate   =     -68.56782178 Ry
     estimated scf accuracy    <       0.00071741 Ry

     iteration #  8     ecut=    80.00 Ry     beta=0.30
     Davidson diagonalization with overlap
     ethr =  4.48E-06,  avg # of iterations =  1.0

     total cpu time spent up to now is       90.7 secs

     total energy              =     -68.56751031 Ry
     Harris-Foulkes estimate   =     -68.56768907 Ry
     estimated scf accuracy    <       0.00034268 Ry

     iteration #  9     ecut=    80.00 Ry     beta=0.30
     Davidson diagonalization with overlap
     ethr =  2.14E-06,  avg # of iterations =  2.0

     total cpu time spent up to now is       91.3 secs

     total energy              =     -68.56759162 Ry
     Harris-Foulkes estimate   =     -68.56759126 Ry
     estimated scf accuracy    <       0.00000122 Ry

     iteration # 10     ecut=    80.00 Ry     beta=0.30
     Davidson diagonalization with overlap
     ethr =  7.63E-09,  avg # of iterations =  2.0

     total cpu time spent up to now is       91.8 secs

     total energy              =     -68.56759150 Ry
     Harris-Foulkes estimate   =     -68.56759174 Ry
     estimated scf accuracy    <       0.00000259 Ry

     iteration # 11     ecut=    80.00 Ry     beta=0.30
     Davidson diagonalization with overlap
     ethr =  7.63E-09,  avg # of iterations =  1.0

     total cpu time spent up to now is       92.3 secs

     total energy              =     -68.56759057 Ry
     Harris-Foulkes estimate   =     -68.56759151 Ry
     estimated scf accuracy    <       0.00000217 Ry

     iteration # 12     ecut=    80.00 Ry     beta=0.30
     Davidson diagonalization with overlap
     ethr =  7.63E-09,  avg # of iterations =  2.0

     total cpu time spent up to now is       92.9 secs

     End of self-consistent calculation

          k = 0.0852 0.0852 0.0852 (  1785 PWs)   bands (ev):

   -15.8183  -9.0426  -0.2546  -0.2546   0.7636   6.0211   7.0235   7.0235

          k = 0.0852 0.0852 0.2557 (  1761 PWs)   bands (ev):

   -15.0550 -10.0354  -0.7449   0.2955   1.6715   4.3323   6.2358   6.7024

          k = 0.0852 0.0852 0.4261 (  1757 PWs)   bands (ev):

   -13.6258 -11.7799  -0.3022   1.0433   1.5973   3.4603   5.2350   5.9447

          k = 0.0852 0.2557 0.2557 (  1763 PWs)   bands (ev):

   -14.3429 -10.4302  -1.8405   0.1881   2.0346   3.8934   5.8854   6.8367

          k = 0.0852 0.2557 0.4261 (  1759 PWs)   bands (ev):

   -13.0555 -11.5290  -1.9892  -0.7906   2.1398   4.2769   5.5813   6.5257

          k = 0.0852 0.4261 0.4261 (  1740 PWs)   bands (ev):

   -12.1842 -11.4662  -3.0891  -2.5588   2.8827   4.3390   6.3410   6.6325

          k = 0.2557 0.2557 0.2557 (  1749 PWs)   bands (ev):

   -13.6930 -10.5837  -1.1836  -1.1836   0.6968   5.3070   5.6394   5.6394

          k = 0.2557 0.2557 0.4261 (  1758 PWs)   bands (ev):

   -12.5979 -11.2282  -2.0160  -0.4871  -0.2331   4.1671   5.6099   6.0773

          k = 0.2557 0.4261 0.4261 (  1755 PWs)   bands (ev):

   -12.0301 -10.9225  -2.3720  -2.0440   0.4554   3.7913   5.0710   5.4875

          k = 0.4261 0.4261 0.4261 (  1760 PWs)   bands (ev):

   -11.8387 -10.2929  -1.4653  -1.2999  -1.2999   3.2494   3.2494   4.0503

!    total energy              =     -68.56759095 Ry
     Harris-Foulkes estimate   =     -68.56759096 Ry
     estimated scf accuracy    <       0.00000002 Ry

     The total energy is the sum of the following terms:

     one-electron contribution =      -7.11666666 Ry
     hartree contribution      =      14.20667242 Ry
     xc contribution           =     -17.40634810 Ry
     ewald contribution        =     -58.25124861 Ry

     convergence has been achieved in  12 iterations

     Forces acting on atoms (Ry/au):

     atom    1 type  2   force =     0.00000000    0.00000000    0.00000000
     atom    2 type  2   force =     0.00000000    0.00000000    0.00000000
     atom    3 type  1   force =    -0.00000000    0.00000000   -0.00000000
     atom    4 type  1   force =    -0.00000000    0.00000000   -0.00000000
     atom    5 type  1   force =    -0.00000000    0.00000000    0.00000000
     atom    6 type  1   force =     0.00000000   -0.00000000   -0.00000000

     Total force =     0.000000     Total SCF correction =     0.000000


     entering subroutine stress ...

          total   stress  (Ry/bohr**3)                   (kbar)     P=  788.99
   0.00536345   0.00000000   0.00000000        788.99      0.00      0.00
   0.00000000   0.00536345   0.00000000          0.00    788.99      0.00
   0.00000000   0.00000000   0.00536345          0.00      0.00    788.99


     number of scf cycles    =   3
     number of bfgs steps    =   1

     enthalpy old            =     -67.8162861506 Ry
     enthalpy new            =     -67.8276130945 Ry

     CASE: enthalpy_new < enthalpy_old

     new trust radius        =       0.0017533557 bohr
     new conv_thr            =       0.0000000100 Ry

     new unit-cell volume =    135.76154 a.u.^3 (    20.11778 Ang^3 )

CELL_PARAMETERS (alat=  5.26000000)
   0.977101872   0.000000000   0.000000000
   0.000000000   0.977101872   0.000000000
   0.000000000   0.000000000   0.977101872

ATOMIC_POSITIONS (crystal)
O        0.000000000   0.000000000   0.000000000
O        0.500000000   0.500000000   0.500000000
H        0.250000000   0.250000000   0.250000000
H        0.750000000   0.750000000   0.250000000
H        0.250000000   0.750000000   0.750000000
H        0.750000000   0.250000000   0.750000000



     Writing output data file iceX_ambient.save
     NEW-OLD atomic charge density approx. for the potential
     NEW k-points:
        k(    1) = (   0.0852862   0.0852862   0.0852862), wk =   0.0740741
        k(    2) = (   0.0852862   0.0852862   0.2558587), wk =   0.2222222
        k(    3) = (   0.0852862   0.0852862   0.4264311), wk =   0.2222222
        k(    4) = (   0.0852862   0.2558587   0.2558587), wk =   0.2222222
        k(    5) = (   0.0852862   0.2558587   0.4264311), wk =   0.4444444
        k(    6) = (   0.0852862   0.4264311   0.4264311), wk =   0.2222222
        k(    7) = (   0.2558587   0.2558587   0.2558587), wk =   0.0740741
        k(    8) = (   0.2558587   0.2558587   0.4264311), wk =   0.2222222
        k(    9) = (   0.2558587   0.4264311   0.4264311), wk =   0.2222222
        k(   10) = (   0.4264311   0.4264311   0.4264311), wk =   0.0740741
     extrapolated charge   15.96387, renormalised to   16.00000

     total cpu time spent up to now is      124.8 secs

     per-process dynamical memory:    12.4 Mb

     Self-consistent Calculation

     iteration #  1     ecut=    80.00 Ry     beta=0.30
     Davidson diagonalization with overlap
     ethr =  1.00E-06,  avg # of iterations =  2.0

     total cpu time spent up to now is      125.4 secs

     total energy              =     -68.56582443 Ry
     Harris-Foulkes estimate   =     -68.57889078 Ry
     estimated scf accuracy    <       0.00011032 Ry

     iteration #  2     ecut=    80.00 Ry     beta=0.30
     Davidson diagonalization with overlap
     ethr =  6.90E-07,  avg # of iterations =  3.0

     total cpu time spent up to now is      126.1 secs

     total energy              =     -68.56593991 Ry
     Harris-Foulkes estimate   =     -68.56594398 Ry
     estimated scf accuracy    <       0.00002415 Ry

     iteration #  3     ecut=    80.00 Ry     beta=0.30
     Davidson diagonalization with overlap
     ethr =  1.51E-07,  avg # of iterations =  1.0

     total cpu time spent up to now is      126.6 secs

     total energy              =     -68.56593244 Ry
     Harris-Foulkes estimate   =     -68.56594021 Ry
     estimated scf accuracy    <       0.00001412 Ry

     iteration #  4     ecut=    80.00 Ry     beta=0.30
     Davidson diagonalization with overlap
     ethr =  8.82E-08,  avg # of iterations =  2.0

     total cpu time spent up to now is      127.2 secs

     total energy              =     -68.56593564 Ry
     Harris-Foulkes estimate   =     -68.56593564 Ry
     estimated scf accuracy    <       0.00000010 Ry

     iteration #  5     ecut=    80.00 Ry     beta=0.30
     Davidson diagonalization with overlap
     ethr =  6.17E-10,  avg # of iterations =  3.0

     total cpu time spent up to now is      127.9 secs

     total energy              =     -68.56593552 Ry
     Harris-Foulkes estimate   =     -68.56593581 Ry
     estimated scf accuracy    <       0.00000057 Ry

     iteration #  6     ecut=    80.00 Ry     beta=0.30
     Davidson diagonalization with overlap
     ethr =  6.17E-10,  avg # of iterations =  3.0

     total cpu time spent up to now is      128.5 secs

     End of self-consistent calculation

          k = 0.0853 0.0853 0.0853 (  1785 PWs)   bands (ev):

   -15.8129  -9.0123  -0.2370  -0.2370   0.7848   6.0543   7.0575   7.0575

          k = 0.0853 0.0853 0.2559 (  1761 PWs)   bands (ev):

   -15.0475 -10.0100  -0.7278   0.3145   1.6958   4.3630   6.2672   6.7355

          k = 0.0853 0.0853 0.4264 (  1757 PWs)   bands (ev):

   -13.6141 -11.7619  -0.2824   1.0644   1.6231   3.4891   5.2632   5.9756

          k = 0.0853 0.2559 0.2559 (  1763 PWs)   bands (ev):

   -14.3333 -10.4058  -1.8271   0.2078   2.0603   3.9220   5.9158   6.8699

          k = 0.0853 0.2559 0.4264 (  1759 PWs)   bands (ev):

   -13.0417 -11.5092  -1.9749  -0.7721   2.1644   4.3052   5.6114   6.5581

          k = 0.0853 0.4264 0.4264 (  1740 PWs)   bands (ev):

   -12.1664 -11.4455  -3.0787  -2.5458   2.9087   4.3666   6.3730   6.6649

          k = 0.2559 0.2559 0.2559 (  1749 PWs)   bands (ev):

   -13.6813 -10.5595  -1.1686  -1.1686   0.7205   5.3385   5.6687   5.6687

          k = 0.2559 0.2559 0.4264 (  1758 PWs)   bands (ev):

   -12.5819 -11.2070  -2.0020  -0.4672  -0.2156   4.1916   5.6408   6.1083

          k = 0.2559 0.4264 0.4264 (  1755 PWs)   bands (ev):

   -12.0106 -10.9001  -2.3599  -2.0300   0.4757   3.8151   5.0983   5.5167

          k = 0.4264 0.4264 0.4264 (  1760 PWs)   bands (ev):

   -11.8177 -10.2678  -1.4500  -1.2850  -1.2850   3.2711   3.2711   4.0747

!    total energy              =     -68.56593563 Ry
     Harris-Foulkes estimate   =     -68.56593563 Ry
     estimated scf accuracy    <          3.9E-10 Ry

     The total energy is the sum of the following terms:

     one-electron contribution =      -7.04815286 Ry
     hartree contribution      =      14.18863232 Ry
     xc contribution           =     -17.41135443 Ry
     ewald contribution        =     -58.29506066 Ry

     convergence has been achieved in   6 iterations

     Forces acting on atoms (Ry/au):

     atom    1 type  2   force =     0.00000000    0.00000000    0.00000000
     atom    2 type  2   force =     0.00000000    0.00000000    0.00000000
     atom    3 type  1   force =    -0.00000000    0.00000000   -0.00000000
     atom    4 type  1   force =     0.00000000   -0.00000000    0.00000000
     atom    5 type  1   force =    -0.00000000   -0.00000000    0.00000000
     atom    6 type  1   force =     0.00000000    0.00000000    0.00000000

     Total force =     0.000000     Total SCF correction =     0.000000


     entering subroutine stress ...

          total   stress  (Ry/bohr**3)                   (kbar)     P=  800.14
   0.00543923   0.00000000   0.00000000        800.14      0.00      0.00
   0.00000000   0.00543923   0.00000000          0.00    800.14      0.00
   0.00000000   0.00000000   0.00543923          0.00      0.00    800.14


     bfgs converged in   4 scf cycles and   2 bfgs steps
     (criteria: energy < 0.10E-03, force < 0.10E-02, cell < 0.50E+00)

     End of BFGS Geometry Optimization

     Final enthalpy =     -67.8276249318 Ry
Begin final coordinates
     new unit-cell volume =    135.76154 a.u.^3 (    20.11778 Ang^3 )

CELL_PARAMETERS (alat=  5.26000000)
   0.977101872   0.000000000   0.000000000
   0.000000000   0.977101872   0.000000000
   0.000000000   0.000000000   0.977101872

ATOMIC_POSITIONS (crystal)
O        0.000000000   0.000000000   0.000000000
O        0.500000000   0.500000000   0.500000000
H        0.250000000   0.250000000   0.250000000
H        0.750000000   0.750000000   0.250000000
H        0.250000000   0.750000000   0.750000000
H        0.750000000   0.250000000   0.750000000
End final coordinates



     A final scf calculation at the relaxed structure.
     The G-vectors are recalculated for the final unit cell
     Results may differ from those at the preceding step.

     G-vector sticks info
     --------------------
     sticks:   dense  smooth     PW     G-vecs:    dense   smooth      PW
     Sum         673     673    197                13205    13205    2109



     bravais-lattice index     =            1
     lattice parameter (alat)  =       5.2600  a.u.
     unit-cell volume          =     135.7615 (a.u.)^3
     number of atoms/cell      =            6
     number of atomic types    =            2
     number of electrons       =        16.00
     number of Kohn-Sham states=            8
     kinetic-energy cutoff     =      80.0000  Ry
     charge density cutoff     =     320.0000  Ry
     convergence threshold     =      1.0E-08
     mixing beta               =       0.3000
     number of iterations used =           16  local-TF  mixing
     Exchange-correlation      = PBE ( 1 4 3 4 0)
     EXX-fraction              =        0.00

     celldm(1)=   5.260000  celldm(2)=   0.000000  celldm(3)=   0.000000
     celldm(4)=   0.000000  celldm(5)=   0.000000  celldm(6)=   0.000000

     crystal axes: (cart. coord. in units of alat)
               a(1) = (   0.977102   0.000000   0.000000 )  
               a(2) = (   0.000000   0.977102   0.000000 )  
               a(3) = (   0.000000   0.000000   0.977102 )  

     reciprocal axes: (cart. coord. in units 2 pi/alat)
               b(1) = (  1.023435  0.000000  0.000000 )  
               b(2) = (  0.000000  1.023435  0.000000 )  
               b(3) = (  0.000000  0.000000  1.023435 )  


     PseudoPot. # 1 for H  read from file:
     /home/ilia/espresso/pseudo/H.pbe-sp-mt.ncpp
     MD5 check sum: 7a641936b52ccecd26bd1ad87cca5aed
     Pseudo is Norm-conserving, Zval =  1.0
     Generated by old ld1 code (numerical format)
     Using radial grid of 1076 points,  0 beta functions with: 

     PseudoPot. # 2 for O  read from file:
     /home/ilia/espresso/pseudo/O.pbe-sp-mt.ncpp
     MD5 check sum: 8a3d23d410d2f3ebfd0a39faacc72cbb
     Pseudo is Norm-conserving, Zval =  6.0
     Generated by old ld1 code (numerical format)
     Using radial grid of 1130 points,  1 beta functions with: 
                l(1) =   1

     atomic species   valence    mass     pseudopotential
        H              1.00     1.00700     H ( 1.00)
        O              6.00    16.00000     O ( 1.00)

     48 Sym. Ops., with inversion, found (24 have fractional translation)



   Cartesian axes

     site n.     atom                  positions (alat units)
         1           O   tau(   1) = (   0.0000000   0.0000000   0.0000000  )
         2           O   tau(   2) = (   0.4885509   0.4885509   0.4885509  )
         3           H   tau(   3) = (   0.2442755   0.2442755   0.2442755  )
         4           H   tau(   4) = (   0.7328264   0.7328264   0.2442755  )
         5           H   tau(   5) = (   0.2442755   0.7328264   0.7328264  )
         6           H   tau(   6) = (   0.7328264   0.2442755   0.7328264  )

     number of k points=    10
                       cart. coord. in units 2pi/alat
        k(    1) = (   0.0852862   0.0852862   0.0852862), wk =   0.0740741
        k(    2) = (   0.0852862   0.0852862   0.2558587), wk =   0.2222222
        k(    3) = (   0.0852862   0.0852862   0.4264311), wk =   0.2222222
        k(    4) = (   0.0852862   0.2558587   0.2558587), wk =   0.2222222
        k(    5) = (   0.0852862   0.2558587   0.4264311), wk =   0.4444444
        k(    6) = (   0.0852862   0.4264311   0.4264311), wk =   0.2222222
        k(    7) = (   0.2558587   0.2558587   0.2558587), wk =   0.0740741
        k(    8) = (   0.2558587   0.2558587   0.4264311), wk =   0.2222222
        k(    9) = (   0.2558587   0.4264311   0.4264311), wk =   0.2222222
        k(   10) = (   0.4264311   0.4264311   0.4264311), wk =   0.0740741

     Dense  grid:    13205 G-vectors     FFT dimensions: (  30,  30,  30)

     Largest allocated arrays     est. size (Mb)     dimensions
        Kohn-Sham Wavefunctions         0.20 Mb     (   1656,    8)
        NL pseudopotentials             0.15 Mb     (   1656,    6)
        Each V/rho on FFT grid          0.41 Mb     (  27000)
        Each G-vector array             0.10 Mb     (  13205)
        G-vector shells                 0.00 Mb     (    182)
     Largest temporary arrays     est. size (Mb)     dimensions
        Auxiliary wavefunctions         0.81 Mb     (   1656,   32)
        Each subspace H/S matrix        0.02 Mb     (  32,  32)
        Each <psi_i|beta_j> matrix      0.00 Mb     (      6,    8)
        Arrays for rho mixing           6.59 Mb     (  27000,  16)

     Initial potential from superposition of free atoms

     starting charge   15.99996, renormalised to   16.00000
     Starting wfc are   12 randomized atomic wfcs

     Writing output data file iceX_ambient.save

     total cpu time spent up to now is      146.2 secs

     per-process dynamical memory:    10.1 Mb

     Self-consistent Calculation

     iteration #  1     ecut=    80.00 Ry     beta=0.30
     Davidson diagonalization with overlap
     ethr =  1.00E-06,  avg # of iterations =  5.2

     total cpu time spent up to now is      147.3 secs

     total energy              =     -68.59562370 Ry
     Harris-Foulkes estimate   =     -68.67553131 Ry
     estimated scf accuracy    <       0.38061195 Ry

     iteration #  2     ecut=    80.00 Ry     beta=0.30
     Davidson diagonalization with overlap
     ethr =  2.38E-03,  avg # of iterations =  1.0

     total cpu time spent up to now is      147.8 secs

     total energy              =     -68.52206991 Ry
     Harris-Foulkes estimate   =     -68.60354687 Ry
     estimated scf accuracy    <       0.17260027 Ry

     iteration #  3     ecut=    80.00 Ry     beta=0.30
     Davidson diagonalization with overlap
     ethr =  1.08E-03,  avg # of iterations =  2.0

     total cpu time spent up to now is      148.4 secs

     total energy              =     -68.56026995 Ry
     Harris-Foulkes estimate   =     -68.55911366 Ry
     estimated scf accuracy    <       0.00979638 Ry

     iteration #  4     ecut=    80.00 Ry     beta=0.30
     Davidson diagonalization with overlap
     ethr =  6.12E-05,  avg # of iterations =  1.0

     total cpu time spent up to now is      149.0 secs

     total energy              =     -68.55731036 Ry
     Harris-Foulkes estimate   =     -68.56053256 Ry
     estimated scf accuracy    <       0.01687027 Ry

     iteration #  5     ecut=    80.00 Ry     beta=0.30
     Davidson diagonalization with overlap
     ethr =  6.12E-05,  avg # of iterations =  2.0

     total cpu time spent up to now is      149.6 secs

     total energy              =     -68.55914842 Ry
     Harris-Foulkes estimate   =     -68.55927465 Ry
     estimated scf accuracy    <       0.00019612 Ry

     iteration #  6     ecut=    80.00 Ry     beta=0.30
     Davidson diagonalization with overlap
     ethr =  1.23E-06,  avg # of iterations =  2.3

     total cpu time spent up to now is      150.3 secs

     total energy              =     -68.55921526 Ry
     Harris-Foulkes estimate   =     -68.55922420 Ry
     estimated scf accuracy    <       0.00003098 Ry

     iteration #  7     ecut=    80.00 Ry     beta=0.30
     Davidson diagonalization with overlap
     ethr =  1.94E-07,  avg # of iterations =  3.0

     total cpu time spent up to now is      151.0 secs

     total energy              =     -68.55922577 Ry
     Harris-Foulkes estimate   =     -68.55922937 Ry
     estimated scf accuracy    <       0.00000731 Ry

     iteration #  8     ecut=    80.00 Ry     beta=0.30
     Davidson diagonalization with overlap
     ethr =  4.57E-08,  avg # of iterations =  2.0

     total cpu time spent up to now is      151.6 secs

     total energy              =     -68.55922710 Ry
     Harris-Foulkes estimate   =     -68.55922710 Ry
     estimated scf accuracy    <       0.00000002 Ry

     iteration #  9     ecut=    80.00 Ry     beta=0.30
     Davidson diagonalization with overlap
     ethr =  9.97E-11,  avg # of iterations =  2.0

     total cpu time spent up to now is      152.1 secs

     End of self-consistent calculation

          k = 0.0853 0.0853 0.0853 (  1656 PWs)   bands (ev):

   -15.8130  -9.0153  -0.2377  -0.2377   0.7868   6.0607   7.0686   7.0686

          k = 0.0853 0.0853 0.2559 (  1649 PWs)   bands (ev):

   -15.0485 -10.0118  -0.7262   0.3158   1.6984   4.3633   6.2715   6.7425

          k = 0.0853 0.0853 0.4264 (  1639 PWs)   bands (ev):

   -13.6152 -11.7629  -0.2802   1.0677   1.6239   3.4913   5.2674   5.9792

          k = 0.0853 0.2559 0.2559 (  1641 PWs)   bands (ev):

   -14.3343 -10.4071  -1.8247   0.2091   2.0621   3.9264   5.9206   6.8736

          k = 0.0853 0.2559 0.4264 (  1637 PWs)   bands (ev):

   -13.0426 -11.5106  -1.9739  -0.7702   2.1667   4.3094   5.6163   6.5627

          k = 0.0853 0.4264 0.4264 (  1642 PWs)   bands (ev):

   -12.1678 -11.4477  -3.0783  -2.5444   2.9104   4.3691   6.3729   6.6701

          k = 0.2559 0.2559 0.2559 (  1637 PWs)   bands (ev):

   -13.6831 -10.5603  -1.1649  -1.1649   0.7185   5.3469   5.6691   5.6691

          k = 0.2559 0.2559 0.4264 (  1650 PWs)   bands (ev):

   -12.5833 -11.2089  -2.0009  -0.4656  -0.2139   4.1946   5.6438   6.1117

          k = 0.2559 0.4264 0.4264 (  1639 PWs)   bands (ev):

   -12.0121 -10.9019  -2.3579  -2.0286   0.4784   3.8191   5.1032   5.5183

          k = 0.4264 0.4264 0.4264 (  1640 PWs)   bands (ev):

   -11.8191 -10.2695  -1.4487  -1.2827  -1.2827   3.2745   3.2745   4.0780

!    total energy              =     -68.55922711 Ry
     Harris-Foulkes estimate   =     -68.55922711 Ry
     estimated scf accuracy    <          4.4E-09 Ry

     The total energy is the sum of the following terms:

     one-electron contribution =      -7.03689602 Ry
     hartree contribution      =      14.18386308 Ry
     xc contribution           =     -17.41113351 Ry
     ewald contribution        =     -58.29506066 Ry

     convergence has been achieved in   9 iterations

     Forces acting on atoms (Ry/au):

     atom    1 type  2   force =     0.00000000    0.00000000    0.00000000
     atom    2 type  2   force =     0.00000000    0.00000000    0.00000000
     atom    3 type  1   force =    -0.00000000   -0.00000000    0.00000000
     atom    4 type  1   force =     0.00000000    0.00000000    0.00000000
     atom    5 type  1   force =     0.00000000    0.00000000    0.00000000
     atom    6 type  1   force =     0.00000000    0.00000000    0.00000000

     Total force =     0.000000     Total SCF correction =     0.000000


     entering subroutine stress ...

          total   stress  (Ry/bohr**3)                   (kbar)     P=  754.15
   0.00512659   0.00000000   0.00000000        754.15      0.00      0.00
   0.00000000   0.00512659   0.00000000          0.00    754.15      0.00
   0.00000000   0.00000000   0.00512659          0.00      0.00    754.15


     Writing output data file iceX_ambient.save

     init_run     :     13.23s CPU     13.47s WALL (       2 calls)
     electrons    :     26.18s CPU     26.56s WALL (       5 calls)
     update_pot   :     46.94s CPU     47.10s WALL (       3 calls)
     forces       :     21.67s CPU     21.72s WALL (       5 calls)
     stress       :     43.58s CPU     43.77s WALL (       5 calls)

     Called by init_run:
     wfcinit      :      0.62s CPU      0.63s WALL (       2 calls)
     potinit      :      5.40s CPU      5.46s WALL (       2 calls)

     Called by electrons:
     c_bands      :     18.48s CPU     18.70s WALL (      44 calls)
     sum_band     :      4.03s CPU      4.09s WALL (      44 calls)
     v_of_rho     :      2.01s CPU      2.03s WALL (      49 calls)
     mix_rho      :      1.74s CPU      1.80s WALL (      44 calls)

     Called by c_bands:
     init_us_2    :      1.06s CPU      1.19s WALL (    1000 calls)
     cegterg      :     17.89s CPU     18.01s WALL (     440 calls)

     Called by *egterg:
     h_psi        :     14.59s CPU     14.71s WALL (    1364 calls)
     g_psi        :      0.19s CPU      0.18s WALL (     904 calls)
     cdiaghg      :      0.31s CPU      0.29s WALL (    1314 calls)

     Called by h_psi:
     add_vuspsi   :      0.34s CPU      0.31s WALL (    1364 calls)

     General routines
     calbec       :      0.34s CPU      0.35s WALL (    1464 calls)
     fft          :      0.52s CPU      0.53s WALL (     577 calls)
     ffts         :      0.65s CPU      0.67s WALL (     737 calls)
     fftw         :     14.37s CPU     14.50s WALL (   24290 calls)
     davcio       :      0.15s CPU      0.16s WALL (    1440 calls)


     PWSCF        :  2m32.06s CPU     2m33.10s WALL


   This run was terminated on:  10:54: 0  22Apr2014            

=------------------------------------------------------------------------------=
   JOB DONE.
=------------------------------------------------------------------------------=
