
     Program PWSCF v.5.0.2 (svn rev. 9392) starts on 22Apr2014 at 10:54: 0 

     This program is part of the open-source Quantum ESPRESSO suite
     for quantum simulation of materials; please cite
         "P. Giannozzi et al., J. Phys.:Condens. Matter 21 395502 (2009);
          URL http://www.quantum-espresso.org", 
     in publications or presentations arising from this work. More details at
     http://www.quantum-espresso.org/quote.php

     Serial version

     Current dimensions of program PWSCF are:
     Max number of different atomic species (ntypx) = 10
     Max number of k-points (npk) =  40000
     Max angular momentum in pseudopotentials (lmaxx) =  3
     Waiting for input...
     Reading input from standard input

     G-vector sticks info
     --------------------
     sticks:   dense  smooth     PW     G-vecs:    dense   smooth      PW
     Sum         697     697    213                13997    13997    2325



     bravais-lattice index     =            1
     lattice parameter (alat)  =       5.2600  a.u.
     unit-cell volume          =     145.5316 (a.u.)^3
     number of atoms/cell      =            6
     number of atomic types    =            2
     number of electrons       =        16.00
     number of Kohn-Sham states=            8
     kinetic-energy cutoff     =      80.0000  Ry
     charge density cutoff     =     320.0000  Ry
     convergence threshold     =      1.0E-06
     mixing beta               =       0.3000
     number of iterations used =           16  local-TF  mixing
     Exchange-correlation      = PBE ( 1 4 3 4 0)
     EXX-fraction              =        0.00
     nstep                     =           50


     celldm(1)=   5.260000  celldm(2)=   0.000000  celldm(3)=   0.000000
     celldm(4)=   0.000000  celldm(5)=   0.000000  celldm(6)=   0.000000

     crystal axes: (cart. coord. in units of alat)
               a(1) = (   1.000000   0.000000   0.000000 )  
               a(2) = (   0.000000   1.000000   0.000000 )  
               a(3) = (   0.000000   0.000000   1.000000 )  

     reciprocal axes: (cart. coord. in units 2 pi/alat)
               b(1) = (  1.000000  0.000000  0.000000 )  
               b(2) = (  0.000000  1.000000  0.000000 )  
               b(3) = (  0.000000  0.000000  1.000000 )  


     PseudoPot. # 1 for H  read from file:
     /home/ilia/espresso/pseudo/H.pbe-sp-mt.ncpp
     MD5 check sum: 7a641936b52ccecd26bd1ad87cca5aed
     Pseudo is Norm-conserving, Zval =  1.0
     Generated by old ld1 code (numerical format)
     Using radial grid of 1076 points,  0 beta functions with: 

     PseudoPot. # 2 for O  read from file:
     /home/ilia/espresso/pseudo/O.pbe-sp-mt.ncpp
     MD5 check sum: 8a3d23d410d2f3ebfd0a39faacc72cbb
     Pseudo is Norm-conserving, Zval =  6.0
     Generated by old ld1 code (numerical format)
     Using radial grid of 1130 points,  1 beta functions with: 
                l(1) =   1

     atomic species   valence    mass     pseudopotential
        H              1.00     1.00700     H ( 1.00)
        O              6.00    16.00000     O ( 1.00)

     48 Sym. Ops., with inversion, found (24 have fractional translation)



   Cartesian axes

     site n.     atom                  positions (alat units)
         1           O   tau(   1) = (   0.0000000   0.0000000   0.0000000  )
         2           O   tau(   2) = (   0.5000000   0.5000000   0.5000000  )
         3           H   tau(   3) = (   0.2500000   0.2500000   0.2500000  )
         4           H   tau(   4) = (   0.7500000   0.7500000   0.2500000  )
         5           H   tau(   5) = (   0.2500000   0.7500000   0.7500000  )
         6           H   tau(   6) = (   0.7500000   0.2500000   0.7500000  )

     number of k points=    10
                       cart. coord. in units 2pi/alat
        k(    1) = (   0.0833333   0.0833333   0.0833333), wk =   0.0740741
        k(    2) = (   0.0833333   0.0833333   0.2500000), wk =   0.2222222
        k(    3) = (   0.0833333   0.0833333   0.4166667), wk =   0.2222222
        k(    4) = (   0.0833333   0.2500000   0.2500000), wk =   0.2222222
        k(    5) = (   0.0833333   0.2500000   0.4166667), wk =   0.4444444
        k(    6) = (   0.0833333   0.4166667   0.4166667), wk =   0.2222222
        k(    7) = (   0.2500000   0.2500000   0.2500000), wk =   0.0740741
        k(    8) = (   0.2500000   0.2500000   0.4166667), wk =   0.2222222
        k(    9) = (   0.2500000   0.4166667   0.4166667), wk =   0.2222222
        k(   10) = (   0.4166667   0.4166667   0.4166667), wk =   0.0740741

     Dense  grid:    13997 G-vectors     FFT dimensions: (  30,  30,  30)

     Largest allocated arrays     est. size (Mb)     dimensions
        Kohn-Sham Wavefunctions         0.22 Mb     (   1785,    8)
        NL pseudopotentials             0.16 Mb     (   1785,    6)
        Each V/rho on FFT grid          0.41 Mb     (  27000)
        Each G-vector array             0.11 Mb     (  13997)
        G-vector shells                 0.11 Mb     (  13997)
     Largest temporary arrays     est. size (Mb)     dimensions
        Auxiliary wavefunctions         0.87 Mb     (   1785,   32)
        Each subspace H/S matrix        0.02 Mb     (  32,  32)
        Each <psi_i|beta_j> matrix      0.00 Mb     (      6,    8)
        Arrays for rho mixing           6.59 Mb     (  27000,  16)

     Initial potential from superposition of free atoms

     starting charge   15.99996, renormalised to   16.00000
     Starting wfc are   12 randomized atomic wfcs

     total cpu time spent up to now is       11.8 secs

     per-process dynamical memory:     6.9 Mb

     Self-consistent Calculation

     iteration #  1     ecut=    80.00 Ry     beta=0.30
     Davidson diagonalization with overlap
     ethr =  1.00E-02,  avg # of iterations =  2.0

     total cpu time spent up to now is       12.4 secs

     total energy              =     -68.63866510 Ry
     Harris-Foulkes estimate   =     -68.71565013 Ry
     estimated scf accuracy    <       0.36796887 Ry

     iteration #  2     ecut=    80.00 Ry     beta=0.30
     Davidson diagonalization with overlap
     ethr =  2.30E-03,  avg # of iterations =  1.0

     total cpu time spent up to now is       12.9 secs

     total energy              =     -68.57090435 Ry
     Harris-Foulkes estimate   =     -68.64741779 Ry
     estimated scf accuracy    <       0.16454180 Ry

     iteration #  3     ecut=    80.00 Ry     beta=0.30
     Davidson diagonalization with overlap
     ethr =  1.03E-03,  avg # of iterations =  2.0

     total cpu time spent up to now is       13.5 secs

     total energy              =     -68.60811439 Ry
     Harris-Foulkes estimate   =     -68.60770072 Ry
     estimated scf accuracy    <       0.01008474 Ry

     iteration #  4     ecut=    80.00 Ry     beta=0.30
     Davidson diagonalization with overlap
     ethr =  6.30E-05,  avg # of iterations =  1.0

     total cpu time spent up to now is       14.0 secs

     total energy              =     -68.60610777 Ry
     Harris-Foulkes estimate   =     -68.60817475 Ry
     estimated scf accuracy    <       0.01214962 Ry

     iteration #  5     ecut=    80.00 Ry     beta=0.30
     Davidson diagonalization with overlap
     ethr =  6.30E-05,  avg # of iterations =  2.0

     total cpu time spent up to now is       14.6 secs

     total energy              =     -68.60739087 Ry
     Harris-Foulkes estimate   =     -68.60816231 Ry
     estimated scf accuracy    <       0.00135999 Ry

     iteration #  6     ecut=    80.00 Ry     beta=0.30
     Davidson diagonalization with overlap
     ethr =  8.50E-06,  avg # of iterations =  2.0

     total cpu time spent up to now is       15.2 secs

     total energy              =     -68.60772183 Ry
     Harris-Foulkes estimate   =     -68.60771763 Ry
     estimated scf accuracy    <       0.00001940 Ry

     iteration #  7     ecut=    80.00 Ry     beta=0.30
     Davidson diagonalization with overlap
     ethr =  1.21E-07,  avg # of iterations =  2.0

     total cpu time spent up to now is       15.8 secs

     total energy              =     -68.60772901 Ry
     Harris-Foulkes estimate   =     -68.60772890 Ry
     estimated scf accuracy    <       0.00000126 Ry

     iteration #  8     ecut=    80.00 Ry     beta=0.30
     Davidson diagonalization with overlap
     ethr =  7.90E-09,  avg # of iterations =  2.0

     total cpu time spent up to now is       16.3 secs

     End of self-consistent calculation

          k = 0.0833 0.0833 0.0833 (  1785 PWs)   bands (ev):

   -15.9744  -9.9064  -0.7572  -0.7572   0.1611   5.0742   6.0538   6.0538

          k = 0.0833 0.0833 0.2500 (  1761 PWs)   bands (ev):

   -15.2710 -10.7662  -1.2325  -0.2469   0.9812   3.4579   5.3392   5.7580

          k = 0.0833 0.0833 0.4167 (  1757 PWs)   bands (ev):

   -13.9641 -12.3014  -0.8650   0.4405   0.8655   2.6412   4.4309   5.0664

          k = 0.0833 0.2500 0.2500 (  1763 PWs)   bands (ev):

   -14.6206 -11.1300  -2.2230  -0.3734   1.3037   3.0784   5.0187   5.8908

          k = 0.0833 0.2500 0.4167 (  1759 PWs)   bands (ev):

   -13.4569 -12.0978  -2.3949  -1.3164   1.4406   3.4675   4.7241   5.6020

          k = 0.0833 0.4167 0.4167 (  1740 PWs)   bands (ev):

   -12.6976 -12.0604  -3.3867  -2.9265   2.1418   3.5509   5.4311   5.7089

          k = 0.2500 0.2500 0.2500 (  1749 PWs)   bands (ev):

   -14.0336 -11.2760  -1.6117  -1.6117   0.0256   4.4099   4.8054   4.8054

          k = 0.2500 0.2500 0.4167 (  1758 PWs)   bands (ev):

   -13.0617 -11.8348  -2.4145  -1.0489  -0.7349   3.4645   4.7287   5.1934

          k = 0.2500 0.4167 0.4167 (  1755 PWs)   bands (ev):

   -12.5865 -11.5635  -2.7173  -2.4432  -0.1224   3.1110   4.2903   4.6543

          k = 0.4167 0.4167 0.4167 (  1760 PWs)   bands (ev):

   -12.4364 -11.0119  -1.9000  -1.7255  -1.7255   2.6263   2.6263   3.3514

!    total energy              =     -68.60772912 Ry
     Harris-Foulkes estimate   =     -68.60772915 Ry
     estimated scf accuracy    <       0.00000006 Ry

     The total energy is the sum of the following terms:

     one-electron contribution =      -9.12236672 Ry
     hartree contribution      =      14.73132308 Ry
     xc contribution           =     -17.25647257 Ry
     ewald contribution        =     -56.96021292 Ry

     convergence has been achieved in   8 iterations

     Forces acting on atoms (Ry/au):

     atom    1 type  2   force =     0.00000000    0.00000000    0.00000000
     atom    2 type  2   force =     0.00000000    0.00000000    0.00000000
     atom    3 type  1   force =     0.00000000    0.00000000    0.00000000
     atom    4 type  1   force =     0.00000000   -0.00000000    0.00000000
     atom    5 type  1   force =    -0.00000000   -0.00000000    0.00000000
     atom    6 type  1   force =     0.00000000    0.00000000    0.00000000

     Total force =     0.000000     Total SCF correction =     0.000000


     entering subroutine stress ...

          total   stress  (Ry/bohr**3)                   (kbar)     P=  472.00
   0.00320861   0.00000000   0.00000000        472.00      0.00      0.00
   0.00000000   0.00320861   0.00000000          0.00    472.00      0.00
   0.00000000   0.00000000   0.00320861          0.00      0.00    472.00


     BFGS Geometry Optimization

     number of scf cycles    =   1
     number of bfgs steps    =   0

     enthalpy new            =     -67.6184254082 Ry

     new trust radius        =       0.2164975154 bohr
     new conv_thr            =       0.0000010000 Ry

     new unit-cell volume =    109.76552 a.u.^3 (    16.26557 Ang^3 )

CELL_PARAMETERS (alat=  5.26000000)
   0.910268628   0.000000000   0.000000000
   0.000000000   0.910268628   0.000000000
   0.000000000   0.000000000   0.910268628

ATOMIC_POSITIONS (crystal)
O        0.000000000   0.000000000   0.000000000
O        0.500000000   0.500000000   0.500000000
H        0.250000000   0.250000000   0.250000000
H        0.750000000   0.750000000   0.250000000
H        0.250000000   0.750000000   0.750000000
H        0.750000000   0.250000000   0.750000000



     Writing output data file iceX_ambient.save
     NEW-OLD atomic charge density approx. for the potential
     NEW k-points:
        k(    1) = (   0.0915481   0.0915481   0.0915481), wk =   0.0740741
        k(    2) = (   0.0915481   0.0915481   0.2746442), wk =   0.2222222
        k(    3) = (   0.0915481   0.0915481   0.4577403), wk =   0.2222222
        k(    4) = (   0.0915481   0.2746442   0.2746442), wk =   0.2222222
        k(    5) = (   0.0915481   0.2746442   0.4577403), wk =   0.4444444
        k(    6) = (   0.0915481   0.4577403   0.4577403), wk =   0.2222222
        k(    7) = (   0.2746442   0.2746442   0.2746442), wk =   0.0740741
        k(    8) = (   0.2746442   0.2746442   0.4577403), wk =   0.2222222
        k(    9) = (   0.2746442   0.4577403   0.4577403), wk =   0.2222222
        k(   10) = (   0.4577403   0.4577403   0.4577403), wk =   0.0740741
     extrapolated charge   10.78656, renormalised to   16.00000

     total cpu time spent up to now is       48.3 secs

     per-process dynamical memory:     8.5 Mb

     Self-consistent Calculation

     iteration #  1     ecut=    80.00 Ry     beta=0.30
     Davidson diagonalization with overlap
     ethr =  1.00E-06,  avg # of iterations =  5.0

     total cpu time spent up to now is       49.3 secs

     total energy              =     -66.60643086 Ry
     Harris-Foulkes estimate   =     -69.38698990 Ry
     estimated scf accuracy    <       2.51694197 Ry

     iteration #  2     ecut=    80.00 Ry     beta=0.30
     Davidson diagonalization with overlap
     ethr =  1.00E-02,  avg # of iterations =  3.0

     total cpu time spent up to now is       50.0 secs

     total energy              =     -68.32138267 Ry
     Harris-Foulkes estimate   =     -68.33208995 Ry
     estimated scf accuracy    <       0.06246904 Ry

     iteration #  3     ecut=    80.00 Ry     beta=0.30
     Davidson diagonalization with overlap
     ethr =  3.90E-04,  avg # of iterations =  1.0

     total cpu time spent up to now is       50.5 secs

     total energy              =     -68.30248085 Ry
     Harris-Foulkes estimate   =     -68.32284505 Ry
     estimated scf accuracy    <       0.03437416 Ry

     iteration #  4     ecut=    80.00 Ry     beta=0.30
     Davidson diagonalization with overlap
     ethr =  2.15E-04,  avg # of iterations =  2.0

     total cpu time spent up to now is       51.1 secs

     total energy              =     -68.31438860 Ry
     Harris-Foulkes estimate   =     -68.31779633 Ry
     estimated scf accuracy    <       0.01151901 Ry

     iteration #  5     ecut=    80.00 Ry     beta=0.30
     Davidson diagonalization with overlap
     ethr =  7.20E-05,  avg # of iterations =  1.0

     total cpu time spent up to now is       51.5 secs

     total energy              =     -68.31243387 Ry
     Harris-Foulkes estimate   =     -68.31482926 Ry
     estimated scf accuracy    <       0.00366022 Ry

     iteration #  6     ecut=    80.00 Ry     beta=0.30
     Davidson diagonalization with overlap
     ethr =  2.29E-05,  avg # of iterations =  2.0

     total cpu time spent up to now is       52.1 secs

     total energy              =     -68.31368876 Ry
     Harris-Foulkes estimate   =     -68.31388619 Ry
     estimated scf accuracy    <       0.00057056 Ry

     iteration #  7     ecut=    80.00 Ry     beta=0.30
     Davidson diagonalization with overlap
     ethr =  3.57E-06,  avg # of iterations =  1.0

     total cpu time spent up to now is       52.6 secs

     total energy              =     -68.31367194 Ry
     Harris-Foulkes estimate   =     -68.31371974 Ry
     estimated scf accuracy    <       0.00011987 Ry

     iteration #  8     ecut=    80.00 Ry     beta=0.30
     Davidson diagonalization with overlap
     ethr =  7.49E-07,  avg # of iterations =  2.0

     total cpu time spent up to now is       53.1 secs

     total energy              =     -68.31368259 Ry
     Harris-Foulkes estimate   =     -68.31368886 Ry
     estimated scf accuracy    <       0.00000869 Ry

     iteration #  9     ecut=    80.00 Ry     beta=0.30
     Davidson diagonalization with overlap
     ethr =  5.43E-08,  avg # of iterations =  2.0

     total cpu time spent up to now is       53.8 secs

     total energy              =     -68.31368552 Ry
     Harris-Foulkes estimate   =     -68.31368753 Ry
     estimated scf accuracy    <       0.00000528 Ry

     iteration # 10     ecut=    80.00 Ry     beta=0.30
     Davidson diagonalization with overlap
     ethr =  3.30E-08,  avg # of iterations =  1.1

     total cpu time spent up to now is       54.2 secs

     End of self-consistent calculation

          k = 0.0915 0.0915 0.0915 (  1785 PWs)   bands (ev):

   -15.3067  -5.8940   1.5994   1.5994   3.0349   9.5009  10.5863  10.5863

          k = 0.0915 0.0915 0.2746 (  1761 PWs)   bands (ev):

   -14.3402  -7.4501   1.0927   2.2933   4.2845   7.5677   9.5234  10.1806

          k = 0.0915 0.0915 0.4577 (  1757 PWs)   bands (ev):

   -12.4931 -10.0007   1.8335   3.2630   4.3729   6.5273   8.1712   9.1841

          k = 0.0915 0.2746 0.2746 (  1763 PWs)   bands (ev):

   -13.4169  -7.9240  -0.4315   2.2611   4.7888   6.9217   9.0635  10.3107

          k = 0.0915 0.2746 0.4577 (  1759 PWs)   bands (ev):

   -11.6962  -9.5446  -0.4477   1.1983   4.7423   7.2284   8.7632   9.9230

          k = 0.0915 0.4577 0.4577 (  1740 PWs)   bands (ev):

   -10.3928  -9.3419  -1.9858  -1.1542   5.6261   7.2223   9.6900  10.0164

          k = 0.2746 0.2746 0.2746 (  1749 PWs)   bands (ev):

   -12.5483  -8.0841   0.3880   0.3880   3.2582   8.6252   8.6843   8.6843

          k = 0.2746 0.2746 0.4577 (  1758 PWs)   bands (ev):

   -11.0054  -9.0846  -0.5096   1.6084   1.6828   6.7128   8.8238   9.3334

          k = 0.2746 0.4577 0.4577 (  1755 PWs)   bands (ev):

   -10.0454  -8.6439  -1.1001  -0.5289   2.6187   6.2607   7.9067   8.5287

          k = 0.4577 0.4577 0.4577 (  1760 PWs)   bands (ev):

    -9.6587  -7.7098   0.1833   0.2625   0.2625   5.5015   5.5015   6.5867

!    total energy              =     -68.31368547 Ry
     Harris-Foulkes estimate   =     -68.31368591 Ry
     estimated scf accuracy    <       0.00000068 Ry

     The total energy is the sum of the following terms:

     one-electron contribution =      -0.38443813 Ry
     hartree contribution      =      12.57766241 Ry
     xc contribution           =     -17.93174107 Ry
     ewald contribution        =     -62.57516867 Ry

     convergence has been achieved in  10 iterations

     Forces acting on atoms (Ry/au):

     atom    1 type  2   force =     0.00000000    0.00000000    0.00000000
     atom    2 type  2   force =     0.00000000    0.00000000    0.00000000
     atom    3 type  1   force =    -0.00000000    0.00000000   -0.00000000
     atom    4 type  1   force =     0.00000000   -0.00000000    0.00000000
     atom    5 type  1   force =     0.00000000    0.00000000    0.00000000
     atom    6 type  1   force =     0.00000000   -0.00000000   -0.00000000

     Total force =     0.000000     Total SCF correction =     0.000000


     entering subroutine stress ...

          total   stress  (Ry/bohr**3)                   (kbar)     P= 2230.70
   0.01516397   0.00000000   0.00000000       2230.70      0.00      0.00
   0.00000000   0.01516397   0.00000000          0.00   2230.70      0.00
   0.00000000   0.00000000   0.01516397          0.00      0.00   2230.70


     number of scf cycles    =   2
     number of bfgs steps    =   1

     enthalpy old            =     -67.6184254082 Ry
     enthalpy new            =     -67.5675144726 Ry

     CASE: enthalpy_new > enthalpy_old

     new trust radius        =       0.0758246744 bohr
     new conv_thr            =       0.0000010000 Ry

     new unit-cell volume =    131.61887 a.u.^3 (    19.50390 Ang^3 )

CELL_PARAMETERS (alat=  5.26000000)
   0.967060488   0.000000000   0.000000000
   0.000000000   0.967060488   0.000000000
   0.000000000   0.000000000   0.967060488

ATOMIC_POSITIONS (crystal)
O        0.000000000   0.000000000   0.000000000
O        0.500000000   0.500000000   0.500000000
H        0.250000000   0.250000000   0.250000000
H        0.750000000   0.750000000   0.250000000
H        0.250000000   0.750000000   0.750000000
H        0.750000000   0.250000000   0.750000000



     Writing output data file iceX_ambient.save
     NEW-OLD atomic charge density approx. for the potential
     NEW k-points:
        k(    1) = (   0.0861718   0.0861718   0.0861718), wk =   0.0740741
        k(    2) = (   0.0861718   0.0861718   0.2585154), wk =   0.2222222
        k(    3) = (   0.0861718   0.0861718   0.4308590), wk =   0.2222222
        k(    4) = (   0.0861718   0.2585154   0.2585154), wk =   0.2222222
        k(    5) = (   0.0861718   0.2585154   0.4308590), wk =   0.4444444
        k(    6) = (   0.0861718   0.4308590   0.4308590), wk =   0.2222222
        k(    7) = (   0.2585154   0.2585154   0.2585154), wk =   0.0740741
        k(    8) = (   0.2585154   0.2585154   0.4308590), wk =   0.2222222
        k(    9) = (   0.2585154   0.4308590   0.4308590), wk =   0.2222222
        k(   10) = (   0.4308590   0.4308590   0.4308590), wk =   0.0740741
     extrapolated charge   18.65655, renormalised to   16.00000

     total cpu time spent up to now is       86.2 secs

     per-process dynamical memory:    12.4 Mb

     Self-consistent Calculation

     iteration #  1     ecut=    80.00 Ry     beta=0.30
     Davidson diagonalization with overlap
     ethr =  1.00E-06,  avg # of iterations =  5.0

     total cpu time spent up to now is       87.2 secs

     total energy              =     -67.99962411 Ry
     Harris-Foulkes estimate   =     -67.83168184 Ry
     estimated scf accuracy    <       0.44377039 Ry

     iteration #  2     ecut=    80.00 Ry     beta=0.30
     Davidson diagonalization with overlap
     ethr =  2.77E-03,  avg # of iterations =  3.0

     total cpu time spent up to now is       88.0 secs

     total energy              =     -68.57185534 Ry
     Harris-Foulkes estimate   =     -68.59675370 Ry
     estimated scf accuracy    <       0.15824498 Ry

     iteration #  3     ecut=    80.00 Ry     beta=0.30
     Davidson diagonalization with overlap
     ethr =  9.89E-04,  avg # of iterations =  1.0

     total cpu time spent up to now is       88.4 secs

     total energy              =     -68.53841147 Ry
     Harris-Foulkes estimate   =     -68.57346709 Ry
     estimated scf accuracy    <       0.09620549 Ry

     iteration #  4     ecut=    80.00 Ry     beta=0.30
     Davidson diagonalization with overlap
     ethr =  6.01E-04,  avg # of iterations =  1.7

     total cpu time spent up to now is       88.9 secs

     total energy              =     -68.54766720 Ry
     Harris-Foulkes estimate   =     -68.54569329 Ry
     estimated scf accuracy    <       0.01489342 Ry

     iteration #  5     ecut=    80.00 Ry     beta=0.30
     Davidson diagonalization with overlap
     ethr =  9.31E-05,  avg # of iterations =  1.0

     total cpu time spent up to now is       89.4 secs

     total energy              =     -68.55069218 Ry
     Harris-Foulkes estimate   =     -68.54806697 Ry
     estimated scf accuracy    <       0.02008618 Ry

     iteration #  6     ecut=    80.00 Ry     beta=0.30
     Davidson diagonalization with overlap
     ethr =  9.31E-05,  avg # of iterations =  1.0

     total cpu time spent up to now is       89.9 secs

     total energy              =     -68.53850756 Ry
     Harris-Foulkes estimate   =     -68.55081174 Ry
     estimated scf accuracy    <       0.02732480 Ry

     iteration #  7     ecut=    80.00 Ry     beta=0.30
     Davidson diagonalization with overlap
     ethr =  9.31E-05,  avg # of iterations =  2.0

     total cpu time spent up to now is       90.5 secs

     total energy              =     -68.54152508 Ry
     Harris-Foulkes estimate   =     -68.54163602 Ry
     estimated scf accuracy    <       0.00178314 Ry

     iteration #  8     ecut=    80.00 Ry     beta=0.30
     Davidson diagonalization with overlap
     ethr =  1.11E-05,  avg # of iterations =  1.0

     total cpu time spent up to now is       91.0 secs

     total energy              =     -68.54090080 Ry
     Harris-Foulkes estimate   =     -68.54153323 Ry
     estimated scf accuracy    <       0.00133959 Ry

     iteration #  9     ecut=    80.00 Ry     beta=0.30
     Davidson diagonalization with overlap
     ethr =  8.37E-06,  avg # of iterations =  2.0

     total cpu time spent up to now is       91.6 secs

     total energy              =     -68.54111765 Ry
     Harris-Foulkes estimate   =     -68.54112094 Ry
     estimated scf accuracy    <       0.00001277 Ry

     iteration # 10     ecut=    80.00 Ry     beta=0.30
     Davidson diagonalization with overlap
     ethr =  7.98E-08,  avg # of iterations =  3.0

     total cpu time spent up to now is       92.3 secs

     total energy              =     -68.54111697 Ry
     Harris-Foulkes estimate   =     -68.54112541 Ry
     estimated scf accuracy    <       0.00001822 Ry

     iteration # 11     ecut=    80.00 Ry     beta=0.30
     Davidson diagonalization with overlap
     ethr =  7.98E-08,  avg # of iterations =  2.0

     total cpu time spent up to now is       92.9 secs

     total energy              =     -68.54111896 Ry
     Harris-Foulkes estimate   =     -68.54111940 Ry
     estimated scf accuracy    <       0.00000150 Ry

     iteration # 12     ecut=    80.00 Ry     beta=0.30
     Davidson diagonalization with overlap
     ethr =  9.40E-09,  avg # of iterations =  2.0

     total cpu time spent up to now is       93.4 secs

     End of self-consistent calculation

          k = 0.0862 0.0862 0.0862 (  1785 PWs)   bands (ev):

   -15.7410  -8.5952   0.0069   0.0069   1.0791   6.5130   7.5272   7.5272

          k = 0.0862 0.0862 0.2585 (  1761 PWs)   bands (ev):

   -14.9474  -9.6607  -0.4895   0.5776   2.0336   4.7878   6.7012   7.1934

          k = 0.0862 0.0862 0.4309 (  1757 PWs)   bands (ev):

   -13.4561 -11.5161  -0.0064   1.3567   1.9817   3.8886   5.6518   6.4015

          k = 0.0862 0.2585 0.2585 (  1763 PWs)   bands (ev):

   -14.2040 -10.0702  -1.6416   0.4804   2.4177   4.3183   6.3352   7.3281

          k = 0.0862 0.2585 0.4309 (  1759 PWs)   bands (ev):

   -12.8532 -11.2389  -1.7761  -0.5146   2.5047   4.6964   6.0280   7.0057

          k = 0.0862 0.4309 0.4309 (  1740 PWs)   bands (ev):

   -11.9225 -11.1609  -2.9340  -2.3652   3.2687   4.7477   6.8140   7.1118

          k = 0.2585 0.2585 0.2585 (  1749 PWs)   bands (ev):

   -13.5220 -10.2267  -0.9612  -0.9612   1.0503   5.7741   6.0718   6.0718

          k = 0.2585 0.2585 0.4309 (  1758 PWs)   bands (ev):

   -12.3629 -10.9175  -1.8071  -0.1903   0.0275   4.5303   6.0667   6.5368

          k = 0.2585 0.4309 0.4309 (  1755 PWs)   bands (ev):

   -11.7442 -10.5936  -2.1925  -1.8344   0.7573   4.1432   5.4750   5.9194

          k = 0.4309 0.4309 0.4309 (  1760 PWs)   bands (ev):

   -11.5294  -9.9225  -1.2373  -1.0788  -1.0788   3.5712   3.5712   4.4118

!    total energy              =     -68.54111912 Ry
     Harris-Foulkes estimate   =     -68.54111915 Ry
     estimated scf accuracy    <       0.00000005 Ry

     The total energy is the sum of the following terms:

     one-electron contribution =      -6.10744791 Ry
     hartree contribution      =      13.94962453 Ry
     xc contribution           =     -17.48293363 Ry
     ewald contribution        =     -58.90036209 Ry

     convergence has been achieved in  12 iterations

     Forces acting on atoms (Ry/au):

     atom    1 type  2   force =     0.00000000    0.00000000    0.00000000
     atom    2 type  2   force =     0.00000000    0.00000000    0.00000000
     atom    3 type  1   force =     0.00000000    0.00000000    0.00000000
     atom    4 type  1   force =    -0.00000000    0.00000000   -0.00000000
     atom    5 type  1   force =     0.00000000    0.00000000    0.00000000
     atom    6 type  1   force =     0.00000000   -0.00000000   -0.00000000

     Total force =     0.000000     Total SCF correction =     0.000000


     entering subroutine stress ...

          total   stress  (Ry/bohr**3)                   (kbar)     P=  965.85
   0.00656569   0.00000000   0.00000000        965.85      0.00      0.00
   0.00000000   0.00656569   0.00000000          0.00    965.85      0.00
   0.00000000   0.00000000   0.00656569          0.00      0.00    965.85


     number of scf cycles    =   3
     number of bfgs steps    =   1

     enthalpy old            =     -67.6184254082 Ry
     enthalpy new            =     -67.6463920873 Ry

     CASE: enthalpy_new < enthalpy_old

     new trust radius        =       0.0050323933 bohr
     new conv_thr            =       0.0000000100 Ry

     new unit-cell volume =    130.75475 a.u.^3 (    19.37585 Ang^3 )

CELL_PARAMETERS (alat=  5.26000000)
   0.964939496   0.000000000   0.000000000
   0.000000000   0.964939496   0.000000000
   0.000000000   0.000000000   0.964939496

ATOMIC_POSITIONS (crystal)
O        0.000000000   0.000000000   0.000000000
O        0.500000000   0.500000000   0.500000000
H        0.250000000   0.250000000   0.250000000
H        0.750000000   0.750000000   0.250000000
H        0.250000000   0.750000000   0.750000000
H        0.750000000   0.250000000   0.750000000



     Writing output data file iceX_ambient.save
     NEW-OLD atomic charge density approx. for the potential
     NEW k-points:
        k(    1) = (   0.0863612   0.0863612   0.0863612), wk =   0.0740741
        k(    2) = (   0.0863612   0.0863612   0.2590836), wk =   0.2222222
        k(    3) = (   0.0863612   0.0863612   0.4318060), wk =   0.2222222
        k(    4) = (   0.0863612   0.2590836   0.2590836), wk =   0.2222222
        k(    5) = (   0.0863612   0.2590836   0.4318060), wk =   0.4444444
        k(    6) = (   0.0863612   0.4318060   0.4318060), wk =   0.2222222
        k(    7) = (   0.2590836   0.2590836   0.2590836), wk =   0.0740741
        k(    8) = (   0.2590836   0.2590836   0.4318060), wk =   0.2222222
        k(    9) = (   0.2590836   0.4318060   0.4318060), wk =   0.2222222
        k(   10) = (   0.4318060   0.4318060   0.4318060), wk =   0.0740741
     extrapolated charge   15.89426, renormalised to   16.00000

     total cpu time spent up to now is      125.4 secs

     per-process dynamical memory:    12.4 Mb

     Self-consistent Calculation

     iteration #  1     ecut=    80.00 Ry     beta=0.30
     Davidson diagonalization with overlap
     ethr =  1.00E-06,  avg # of iterations =  3.0

     total cpu time spent up to now is      126.1 secs

     total energy              =     -68.53440725 Ry
     Harris-Foulkes estimate   =     -68.56880836 Ry
     estimated scf accuracy    <       0.00092630 Ry

     iteration #  2     ecut=    80.00 Ry     beta=0.30
     Davidson diagonalization with overlap
     ethr =  5.79E-06,  avg # of iterations =  3.0

     total cpu time spent up to now is      126.8 secs

     total energy              =     -68.53537578 Ry
     Harris-Foulkes estimate   =     -68.53540826 Ry
     estimated scf accuracy    <       0.00018987 Ry

     iteration #  3     ecut=    80.00 Ry     beta=0.30
     Davidson diagonalization with overlap
     ethr =  1.19E-06,  avg # of iterations =  1.0

     total cpu time spent up to now is      127.3 secs

     total energy              =     -68.53531899 Ry
     Harris-Foulkes estimate   =     -68.53537824 Ry
     estimated scf accuracy    <       0.00011069 Ry

     iteration #  4     ecut=    80.00 Ry     beta=0.30
     Davidson diagonalization with overlap
     ethr =  6.92E-07,  avg # of iterations =  2.0

     total cpu time spent up to now is      127.9 secs

     total energy              =     -68.53534214 Ry
     Harris-Foulkes estimate   =     -68.53534166 Ry
     estimated scf accuracy    <       0.00000039 Ry

     iteration #  5     ecut=    80.00 Ry     beta=0.30
     Davidson diagonalization with overlap
     ethr =  2.44E-09,  avg # of iterations =  3.0

     total cpu time spent up to now is      128.6 secs

     total energy              =     -68.53534097 Ry
     Harris-Foulkes estimate   =     -68.53534278 Ry
     estimated scf accuracy    <       0.00000339 Ry

     iteration #  6     ecut=    80.00 Ry     beta=0.30
     Davidson diagonalization with overlap
     ethr =  2.44E-09,  avg # of iterations =  3.0

     total cpu time spent up to now is      129.3 secs

     total energy              =     -68.53534170 Ry
     Harris-Foulkes estimate   =     -68.53534174 Ry
     estimated scf accuracy    <       0.00000006 Ry

     iteration #  7     ecut=    80.00 Ry     beta=0.30
     Davidson diagonalization with overlap
     ethr =  3.56E-10,  avg # of iterations =  2.0

     total cpu time spent up to now is      129.9 secs

     End of self-consistent calculation

          k = 0.0864 0.0864 0.0864 (  1785 PWs)   bands (ev):

   -15.7253  -8.5041   0.0601   0.0601   1.1434   6.6132   7.6298   7.6298

          k = 0.0864 0.0864 0.2591 (  1761 PWs)   bands (ev):

   -14.9255  -9.5846  -0.4374   0.6349   2.1075   4.8806   6.7960   7.2935

          k = 0.0864 0.0864 0.4318 (  1757 PWs)   bands (ev):

   -13.4218 -11.4628   0.0540   1.4204   2.0603   3.9760   5.7368   6.4947

          k = 0.0864 0.2591 0.2591 (  1763 PWs)   bands (ev):

   -14.1758  -9.9970  -1.6011   0.5398   2.4959   4.4050   6.4269   7.4282

          k = 0.0864 0.2591 0.4318 (  1759 PWs)   bands (ev):

   -12.8123 -11.1801  -1.7325  -0.4582   2.5791   4.7817   6.1191   7.1035

          k = 0.0864 0.4318 0.4318 (  1740 PWs)   bands (ev):

   -11.8694 -11.0988  -2.9024  -2.3257   3.3473   4.8310   6.9104   7.2094

          k = 0.2591 0.2591 0.2591 (  1749 PWs)   bands (ev):

   -13.4873 -10.1540  -0.9160  -0.9160   1.1226   5.8693   6.1599   6.1599

          k = 0.2591 0.2591 0.4318 (  1758 PWs)   bands (ev):

   -12.3153 -10.8544  -1.7645  -0.1294   0.0805   4.6042   6.1597   6.6304

          k = 0.2591 0.4318 0.4318 (  1755 PWs)   bands (ev):

   -11.6861 -10.5268  -2.1560  -1.7916   0.8189   4.2148   5.5571   6.0073

          k = 0.4318 0.4318 0.4318 (  1760 PWs)   bands (ev):

   -11.4664  -9.8471  -1.1908  -1.0339  -1.0339   3.6366   3.6366   4.4853

!    total energy              =     -68.53534172 Ry
     Harris-Foulkes estimate   =     -68.53534172 Ry
     estimated scf accuracy    <          6.0E-09 Ry

     The total energy is the sum of the following terms:

     one-electron contribution =      -5.90526459 Ry
     hartree contribution      =      13.89778600 Ry
     xc contribution           =     -17.49803464 Ry
     ewald contribution        =     -59.02982848 Ry

     convergence has been achieved in   7 iterations

     Forces acting on atoms (Ry/au):

     atom    1 type  2   force =     0.00000000    0.00000000    0.00000000
     atom    2 type  2   force =     0.00000000    0.00000000    0.00000000
     atom    3 type  1   force =    -0.00000000    0.00000000    0.00000000
     atom    4 type  1   force =     0.00000000   -0.00000000    0.00000000
     atom    5 type  1   force =    -0.00000000    0.00000000    0.00000000
     atom    6 type  1   force =    -0.00000000    0.00000000   -0.00000000

     Total force =     0.000000     Total SCF correction =     0.000000


     entering subroutine stress ...

          total   stress  (Ry/bohr**3)                   (kbar)     P= 1001.75
   0.00680975   0.00000000   0.00000000       1001.75      0.00      0.00
   0.00000000   0.00680975   0.00000000          0.00   1001.75      0.00
   0.00000000   0.00000000   0.00680975          0.00      0.00   1001.75


     number of scf cycles    =   4
     number of bfgs steps    =   2

     enthalpy old            =     -67.6463920873 Ry
     enthalpy new            =     -67.6464888295 Ry

     CASE: enthalpy_new < enthalpy_old

     new trust radius        =       0.0002438669 bohr
     new conv_thr            =       0.0000000100 Ry

     new unit-cell volume =    130.79658 a.u.^3 (    19.38205 Ang^3 )

CELL_PARAMETERS (alat=  5.26000000)
   0.965042391   0.000000000   0.000000000
   0.000000000   0.965042391   0.000000000
   0.000000000   0.000000000   0.965042391

ATOMIC_POSITIONS (crystal)
O        0.000000000   0.000000000   0.000000000
O        0.500000000   0.500000000   0.500000000
H        0.250000000   0.250000000   0.250000000
H        0.750000000   0.750000000   0.250000000
H        0.250000000   0.750000000   0.750000000
H        0.750000000   0.250000000   0.750000000



     Writing output data file iceX_ambient.save
     NEW-OLD atomic charge density approx. for the potential
     NEW k-points:
        k(    1) = (   0.0863520   0.0863520   0.0863520), wk =   0.0740741
        k(    2) = (   0.0863520   0.0863520   0.2590560), wk =   0.2222222
        k(    3) = (   0.0863520   0.0863520   0.4317600), wk =   0.2222222
        k(    4) = (   0.0863520   0.2590560   0.2590560), wk =   0.2222222
        k(    5) = (   0.0863520   0.2590560   0.4317600), wk =   0.4444444
        k(    6) = (   0.0863520   0.4317600   0.4317600), wk =   0.2222222
        k(    7) = (   0.2590560   0.2590560   0.2590560), wk =   0.0740741
        k(    8) = (   0.2590560   0.2590560   0.4317600), wk =   0.2222222
        k(    9) = (   0.2590560   0.4317600   0.4317600), wk =   0.2222222
        k(   10) = (   0.4317600   0.4317600   0.4317600), wk =   0.0740741
     extrapolated charge   16.00512, renormalised to   16.00000

     total cpu time spent up to now is      161.9 secs

     per-process dynamical memory:    12.4 Mb

     Self-consistent Calculation

     iteration #  1     ecut=    80.00 Ry     beta=0.30
     Davidson diagonalization with overlap
     ethr =  1.00E-06,  avg # of iterations =  1.0

     Threshold (ethr) on eigenvalues was too large:
     Diagonalizing with lowered threshold

     Davidson diagonalization with overlap
     ethr =  8.42E-09,  avg # of iterations =  2.0

     total cpu time spent up to now is      162.7 secs

     total energy              =     -68.53562435 Ry
     Harris-Foulkes estimate   =     -68.53401735 Ry
     estimated scf accuracy    <       0.00000186 Ry

     iteration #  2     ecut=    80.00 Ry     beta=0.30
     Davidson diagonalization with overlap
     ethr =  1.16E-08,  avg # of iterations =  3.0

     total cpu time spent up to now is      163.5 secs

     total energy              =     -68.53562649 Ry
     Harris-Foulkes estimate   =     -68.53562657 Ry
     estimated scf accuracy    <       0.00000049 Ry

     iteration #  3     ecut=    80.00 Ry     beta=0.30
     Davidson diagonalization with overlap
     ethr =  3.09E-09,  avg # of iterations =  1.0

     total cpu time spent up to now is      163.9 secs

     total energy              =     -68.53562633 Ry
     Harris-Foulkes estimate   =     -68.53562649 Ry
     estimated scf accuracy    <       0.00000029 Ry

     iteration #  4     ecut=    80.00 Ry     beta=0.30
     Davidson diagonalization with overlap
     ethr =  1.84E-09,  avg # of iterations =  2.0

     total cpu time spent up to now is      164.5 secs

     End of self-consistent calculation

          k = 0.0864 0.0864 0.0864 (  1785 PWs)   bands (ev):

   -15.7261  -8.5087   0.0574   0.0574   1.1402   6.6082   7.6247   7.6247

          k = 0.0864 0.0864 0.2591 (  1761 PWs)   bands (ev):

   -14.9267  -9.5884  -0.4400   0.6321   2.1038   4.8760   6.7913   7.2885

          k = 0.0864 0.0864 0.4318 (  1757 PWs)   bands (ev):

   -13.4236 -11.4655   0.0510   1.4172   2.0564   3.9716   5.7325   6.4900

          k = 0.0864 0.2591 0.2591 (  1763 PWs)   bands (ev):

   -14.1773 -10.0007  -1.6032   0.5368   2.4920   4.4007   6.4223   7.4232

          k = 0.0864 0.2591 0.4318 (  1759 PWs)   bands (ev):

   -12.8144 -11.1831  -1.7347  -0.4610   2.5754   4.7774   6.1145   7.0986

          k = 0.0864 0.4318 0.4318 (  1740 PWs)   bands (ev):

   -11.8721 -11.1019  -2.9040  -2.3277   3.3434   4.8268   6.9056   7.2046

          k = 0.2591 0.2591 0.2591 (  1749 PWs)   bands (ev):

   -13.4891 -10.1576  -0.9183  -0.9183   1.1190   5.8645   6.1555   6.1555

          k = 0.2591 0.2591 0.4318 (  1758 PWs)   bands (ev):

   -12.3177 -10.8576  -1.7666  -0.1325   0.0778   4.6004   6.1550   6.6258

          k = 0.2591 0.4318 0.4318 (  1755 PWs)   bands (ev):

   -11.6890 -10.5302  -2.1578  -1.7937   0.8158   4.2112   5.5530   6.0029

          k = 0.4318 0.4318 0.4318 (  1760 PWs)   bands (ev):

   -11.4695  -9.8509  -1.1931  -1.0362  -1.0362   3.6333   3.6333   4.4817

!    total energy              =     -68.53562639 Ry
     Harris-Foulkes estimate   =     -68.53562639 Ry
     estimated scf accuracy    <          1.7E-09 Ry

     The total energy is the sum of the following terms:

     one-electron contribution =      -5.91516861 Ry
     hartree contribution      =      13.90039946 Ry
     xc contribution           =     -17.49732266 Ry
     ewald contribution        =     -59.02353459 Ry

     convergence has been achieved in   4 iterations

     Forces acting on atoms (Ry/au):

     atom    1 type  2   force =     0.00000000    0.00000000    0.00000000
     atom    2 type  2   force =     0.00000000    0.00000000    0.00000000
     atom    3 type  1   force =     0.00000000   -0.00000000   -0.00000000
     atom    4 type  1   force =     0.00000000    0.00000000   -0.00000000
     atom    5 type  1   force =     0.00000000    0.00000000    0.00000000
     atom    6 type  1   force =    -0.00000000   -0.00000000    0.00000000

     Total force =     0.000000     Total SCF correction =     0.000000


     entering subroutine stress ...

          total   stress  (Ry/bohr**3)                   (kbar)     P= 1000.08
   0.00679840   0.00000000   0.00000000       1000.08      0.00      0.00
   0.00000000   0.00679840   0.00000000          0.00   1000.08      0.00
   0.00000000   0.00000000   0.00679840          0.00      0.00   1000.08


     bfgs converged in   5 scf cycles and   3 bfgs steps
     (criteria: energy < 0.10E-03, force < 0.10E-02, cell < 0.50E+00)

     End of BFGS Geometry Optimization

     Final enthalpy =     -67.6464891332 Ry
Begin final coordinates
     new unit-cell volume =    130.79658 a.u.^3 (    19.38205 Ang^3 )

CELL_PARAMETERS (alat=  5.26000000)
   0.965042391   0.000000000   0.000000000
   0.000000000   0.965042391   0.000000000
   0.000000000   0.000000000   0.965042391

ATOMIC_POSITIONS (crystal)
O        0.000000000   0.000000000   0.000000000
O        0.500000000   0.500000000   0.500000000
H        0.250000000   0.250000000   0.250000000
H        0.750000000   0.750000000   0.250000000
H        0.250000000   0.750000000   0.750000000
H        0.750000000   0.250000000   0.750000000
End final coordinates



     A final scf calculation at the relaxed structure.
     The G-vectors are recalculated for the final unit cell
     Results may differ from those at the preceding step.

     G-vector sticks info
     --------------------
     sticks:   dense  smooth     PW     G-vecs:    dense   smooth      PW
     Sum         665     665    193                12557    12557    2103



     bravais-lattice index     =            1
     lattice parameter (alat)  =       5.2600  a.u.
     unit-cell volume          =     130.7966 (a.u.)^3
     number of atoms/cell      =            6
     number of atomic types    =            2
     number of electrons       =        16.00
     number of Kohn-Sham states=            8
     kinetic-energy cutoff     =      80.0000  Ry
     charge density cutoff     =     320.0000  Ry
     convergence threshold     =      1.0E-08
     mixing beta               =       0.3000
     number of iterations used =           16  local-TF  mixing
     Exchange-correlation      = PBE ( 1 4 3 4 0)
     EXX-fraction              =        0.00

     celldm(1)=   5.260000  celldm(2)=   0.000000  celldm(3)=   0.000000
     celldm(4)=   0.000000  celldm(5)=   0.000000  celldm(6)=   0.000000

     crystal axes: (cart. coord. in units of alat)
               a(1) = (   0.965042   0.000000   0.000000 )  
               a(2) = (   0.000000   0.965042   0.000000 )  
               a(3) = (   0.000000   0.000000   0.965042 )  

     reciprocal axes: (cart. coord. in units 2 pi/alat)
               b(1) = (  1.036224  0.000000  0.000000 )  
               b(2) = (  0.000000  1.036224  0.000000 )  
               b(3) = (  0.000000  0.000000  1.036224 )  


     PseudoPot. # 1 for H  read from file:
     /home/ilia/espresso/pseudo/H.pbe-sp-mt.ncpp
     MD5 check sum: 7a641936b52ccecd26bd1ad87cca5aed
     Pseudo is Norm-conserving, Zval =  1.0
     Generated by old ld1 code (numerical format)
     Using radial grid of 1076 points,  0 beta functions with: 

     PseudoPot. # 2 for O  read from file:
     /home/ilia/espresso/pseudo/O.pbe-sp-mt.ncpp
     MD5 check sum: 8a3d23d410d2f3ebfd0a39faacc72cbb
     Pseudo is Norm-conserving, Zval =  6.0
     Generated by old ld1 code (numerical format)
     Using radial grid of 1130 points,  1 beta functions with: 
                l(1) =   1

     atomic species   valence    mass     pseudopotential
        H              1.00     1.00700     H ( 1.00)
        O              6.00    16.00000     O ( 1.00)

     48 Sym. Ops., with inversion, found (24 have fractional translation)



   Cartesian axes

     site n.     atom                  positions (alat units)
         1           O   tau(   1) = (   0.0000000   0.0000000   0.0000000  )
         2           O   tau(   2) = (   0.4825212   0.4825212   0.4825212  )
         3           H   tau(   3) = (   0.2412606   0.2412606   0.2412606  )
         4           H   tau(   4) = (   0.7237818   0.7237818   0.2412606  )
         5           H   tau(   5) = (   0.2412606   0.7237818   0.7237818  )
         6           H   tau(   6) = (   0.7237818   0.2412606   0.7237818  )

     number of k points=    10
                       cart. coord. in units 2pi/alat
        k(    1) = (   0.0863520   0.0863520   0.0863520), wk =   0.0740741
        k(    2) = (   0.0863520   0.0863520   0.2590560), wk =   0.2222222
        k(    3) = (   0.0863520   0.0863520   0.4317600), wk =   0.2222222
        k(    4) = (   0.0863520   0.2590560   0.2590560), wk =   0.2222222
        k(    5) = (   0.0863520   0.2590560   0.4317600), wk =   0.4444444
        k(    6) = (   0.0863520   0.4317600   0.4317600), wk =   0.2222222
        k(    7) = (   0.2590560   0.2590560   0.2590560), wk =   0.0740741
        k(    8) = (   0.2590560   0.2590560   0.4317600), wk =   0.2222222
        k(    9) = (   0.2590560   0.4317600   0.4317600), wk =   0.2222222
        k(   10) = (   0.4317600   0.4317600   0.4317600), wk =   0.0740741

     Dense  grid:    12557 G-vectors     FFT dimensions: (  30,  30,  30)

     Largest allocated arrays     est. size (Mb)     dimensions
        Kohn-Sham Wavefunctions         0.19 Mb     (   1589,    8)
        NL pseudopotentials             0.15 Mb     (   1589,    6)
        Each V/rho on FFT grid          0.41 Mb     (  27000)
        Each G-vector array             0.10 Mb     (  12557)
        G-vector shells                 0.00 Mb     (    176)
     Largest temporary arrays     est. size (Mb)     dimensions
        Auxiliary wavefunctions         0.78 Mb     (   1589,   32)
        Each subspace H/S matrix        0.02 Mb     (  32,  32)
        Each <psi_i|beta_j> matrix      0.00 Mb     (      6,    8)
        Arrays for rho mixing           6.59 Mb     (  27000,  16)

     Initial potential from superposition of free atoms

     starting charge   15.99996, renormalised to   16.00000
     Starting wfc are   12 randomized atomic wfcs

     Writing output data file iceX_ambient.save

     total cpu time spent up to now is      182.1 secs

     per-process dynamical memory:    10.0 Mb

     Self-consistent Calculation

     iteration #  1     ecut=    80.00 Ry     beta=0.30
     Davidson diagonalization with overlap
     ethr =  1.00E-06,  avg # of iterations =  5.4

     total cpu time spent up to now is      183.1 secs

     total energy              =     -68.56493503 Ry
     Harris-Foulkes estimate   =     -68.64713367 Ry
     estimated scf accuracy    <       0.39047366 Ry

     iteration #  2     ecut=    80.00 Ry     beta=0.30
     Davidson diagonalization with overlap
     ethr =  2.44E-03,  avg # of iterations =  1.0

     total cpu time spent up to now is      183.6 secs

     total energy              =     -68.48813454 Ry
     Harris-Foulkes estimate   =     -68.57291039 Ry
     estimated scf accuracy    <       0.17827170 Ry

     iteration #  3     ecut=    80.00 Ry     beta=0.30
     Davidson diagonalization with overlap
     ethr =  1.11E-03,  avg # of iterations =  2.0

     total cpu time spent up to now is      184.3 secs

     total energy              =     -68.52730389 Ry
     Harris-Foulkes estimate   =     -68.52603124 Ry
     estimated scf accuracy    <       0.00978079 Ry

     iteration #  4     ecut=    80.00 Ry     beta=0.30
     Davidson diagonalization with overlap
     ethr =  6.11E-05,  avg # of iterations =  1.0

     total cpu time spent up to now is      184.8 secs

     total energy              =     -68.52411677 Ry
     Harris-Foulkes estimate   =     -68.52761281 Ry
     estimated scf accuracy    <       0.01773756 Ry

     iteration #  5     ecut=    80.00 Ry     beta=0.30
     Davidson diagonalization with overlap
     ethr =  6.11E-05,  avg # of iterations =  2.0

     total cpu time spent up to now is      185.4 secs

     total energy              =     -68.52606028 Ry
     Harris-Foulkes estimate   =     -68.52617672 Ry
     estimated scf accuracy    <       0.00017973 Ry

     iteration #  6     ecut=    80.00 Ry     beta=0.30
     Davidson diagonalization with overlap
     ethr =  1.12E-06,  avg # of iterations =  2.2

     total cpu time spent up to now is      186.1 secs

     total energy              =     -68.52612181 Ry
     Harris-Foulkes estimate   =     -68.52613088 Ry
     estimated scf accuracy    <       0.00002985 Ry

     iteration #  7     ecut=    80.00 Ry     beta=0.30
     Davidson diagonalization with overlap
     ethr =  1.87E-07,  avg # of iterations =  2.8

     total cpu time spent up to now is      186.8 secs

     total energy              =     -68.52613174 Ry
     Harris-Foulkes estimate   =     -68.52613464 Ry
     estimated scf accuracy    <       0.00000593 Ry

     iteration #  8     ecut=    80.00 Ry     beta=0.30
     Davidson diagonalization with overlap
     ethr =  3.70E-08,  avg # of iterations =  2.0

     total cpu time spent up to now is      187.3 secs

     total energy              =     -68.52613281 Ry
     Harris-Foulkes estimate   =     -68.52613281 Ry
     estimated scf accuracy    <       0.00000002 Ry

     iteration #  9     ecut=    80.00 Ry     beta=0.30
     Davidson diagonalization with overlap
     ethr =  1.14E-10,  avg # of iterations =  2.2

     total cpu time spent up to now is      187.9 secs

     End of self-consistent calculation

          k = 0.0864 0.0864 0.0864 (  1584 PWs)   bands (ev):

   -15.7261  -8.5119   0.0591   0.0591   1.1423   6.6164   7.6382   7.6382

          k = 0.0864 0.0864 0.2591 (  1579 PWs)   bands (ev):

   -14.9273  -9.5906  -0.4377   0.6354   2.1073   4.8791   6.7997   7.2960

          k = 0.0864 0.0864 0.4318 (  1582 PWs)   bands (ev):

   -13.4246 -11.4666   0.0526   1.4214   2.0566   3.9752   5.7391   6.4953

          k = 0.0864 0.2591 0.2591 (  1580 PWs)   bands (ev):

   -14.1782 -10.0021  -1.6011   0.5398   2.4944   4.4055   6.4294   7.4280

          k = 0.0864 0.2591 0.4318 (  1580 PWs)   bands (ev):

   -12.8154 -11.1845  -1.7328  -0.4593   2.5782   4.7821   6.1201   7.1052

          k = 0.0864 0.4318 0.4318 (  1587 PWs)   bands (ev):

   -11.8737 -11.1042  -2.9037  -2.3262   3.3464   4.8312   6.9096   7.2097

          k = 0.2591 0.2591 0.2591 (  1589 PWs)   bands (ev):

   -13.4908 -10.1590  -0.9153  -0.9153   1.1169   5.8714   6.1583   6.1583

          k = 0.2591 0.2591 0.4318 (  1570 PWs)   bands (ev):

   -12.3186 -10.8592  -1.7646  -0.1305   0.0823   4.6082   6.1612   6.6321

          k = 0.2591 0.4318 0.4318 (  1581 PWs)   bands (ev):

   -11.6905 -10.5320  -2.1553  -1.7919   0.8196   4.2164   5.5570   6.0074

          k = 0.4318 0.4318 0.4318 (  1574 PWs)   bands (ev):

   -11.4709  -9.8527  -1.1895  -1.0330  -1.0330   3.6374   3.6374   4.4866

!    total energy              =     -68.52613282 Ry
     Harris-Foulkes estimate   =     -68.52613282 Ry
     estimated scf accuracy    <          4.2E-09 Ry

     The total energy is the sum of the following terms:

     one-electron contribution =      -5.89944401 Ry
     hartree contribution      =      13.89398949 Ry
     xc contribution           =     -17.49714371 Ry
     ewald contribution        =     -59.02353459 Ry

     convergence has been achieved in   9 iterations

     Forces acting on atoms (Ry/au):

     atom    1 type  2   force =     0.00000000    0.00000000    0.00000000
     atom    2 type  2   force =     0.00000000    0.00000000    0.00000000
     atom    3 type  1   force =    -0.00000000    0.00000000    0.00000000
     atom    4 type  1   force =     0.00000000    0.00000000    0.00000000
     atom    5 type  1   force =     0.00000000    0.00000000   -0.00000000
     atom    6 type  1   force =     0.00000000   -0.00000000    0.00000000

     Total force =     0.000000     Total SCF correction =     0.000000


     entering subroutine stress ...

          total   stress  (Ry/bohr**3)                   (kbar)     P=  930.52
   0.00632556   0.00000000   0.00000000        930.52      0.00      0.00
   0.00000000   0.00632556   0.00000000          0.00    930.52      0.00
   0.00000000   0.00000000   0.00632556          0.00      0.00    930.52


     Writing output data file iceX_ambient.save

     init_run     :     12.97s CPU     13.10s WALL (       2 calls)
     electrons    :     30.07s CPU     30.49s WALL (       6 calls)
     update_pot   :     62.68s CPU     62.84s WALL (       4 calls)
     forces       :     27.14s CPU     27.22s WALL (       6 calls)
     stress       :     54.39s CPU     54.55s WALL (       6 calls)

     Called by init_run:
     wfcinit      :      0.59s CPU      0.59s WALL (       2 calls)
     potinit      :      5.25s CPU      5.26s WALL (       2 calls)

     Called by electrons:
     c_bands      :     21.29s CPU     21.53s WALL (      51 calls)
     sum_band     :      4.64s CPU      4.73s WALL (      51 calls)
     v_of_rho     :      2.29s CPU      2.30s WALL (      56 calls)
     mix_rho      :      1.95s CPU      2.02s WALL (      51 calls)

     Called by c_bands:
     init_us_2    :      1.25s CPU      1.38s WALL (    1160 calls)
     cegterg      :     20.58s CPU     20.74s WALL (     510 calls)

     Called by *egterg:
     h_psi        :     16.73s CPU     16.86s WALL (    1584 calls)
     g_psi        :      0.21s CPU      0.21s WALL (    1054 calls)
     cdiaghg      :      0.33s CPU      0.33s WALL (    1514 calls)

     Called by h_psi:
     add_vuspsi   :      0.36s CPU      0.36s WALL (    1584 calls)

     General routines
     calbec       :      0.42s CPU      0.40s WALL (    1704 calls)
     fft          :      0.60s CPU      0.61s WALL (     664 calls)
     ffts         :      0.79s CPU      0.77s WALL (     820 calls)
     fftw         :     16.46s CPU     16.62s WALL (   28146 calls)
     davcio       :      0.14s CPU      0.18s WALL (    1670 calls)


     PWSCF        :  3m 7.79s CPU     3m 8.77s WALL


   This run was terminated on:  10:57: 9  22Apr2014            

=------------------------------------------------------------------------------=
   JOB DONE.
=------------------------------------------------------------------------------=
