
     Program PWSCF v.5.0.2 (svn rev. 9392) starts on 15Jun2014 at  3:34: 1 

     This program is part of the open-source Quantum ESPRESSO suite
     for quantum simulation of materials; please cite
         "P. Giannozzi et al., J. Phys.:Condens. Matter 21 395502 (2009);
          URL http://www.quantum-espresso.org", 
     in publications or presentations arising from this work. More details at
     http://www.quantum-espresso.org/quote.php

     Serial version

     Current dimensions of program PWSCF are:
     Max number of different atomic species (ntypx) = 10
     Max number of k-points (npk) =  40000
     Max angular momentum in pseudopotentials (lmaxx) =  3
     Waiting for input...
     Reading input from standard input

     G-vector sticks info
     --------------------
     sticks:   dense  smooth     PW     G-vecs:    dense   smooth      PW
     Sum        1675    1675    499                70221    70221   10875



     bravais-lattice index     =            4
     lattice parameter (alat)  =       7.1520  a.u.
     unit-cell volume          =     396.1522 (a.u.)^3
     number of atoms/cell      =            6
     number of atomic types    =            2
     number of electrons       =        24.00
     number of Kohn-Sham states=           12
     kinetic-energy cutoff     =     120.0000  Ry
     charge density cutoff     =     480.0000  Ry
     convergence threshold     =      1.0E-06
     mixing beta               =       0.3000
     number of iterations used =           16  local-TF  mixing
     Exchange-correlation      = BLYP ( 1 3 1 3 0)
     EXX-fraction              =        0.00
     nstep                     =           50


     celldm(1)=   7.152000  celldm(2)=   0.000000  celldm(3)=   1.250400
     celldm(4)=   0.000000  celldm(5)=   0.000000  celldm(6)=   0.000000

     crystal axes: (cart. coord. in units of alat)
               a(1) = (   1.000000   0.000000   0.000000 )  
               a(2) = (  -0.500000   0.866025   0.000000 )  
               a(3) = (   0.000000   0.000000   1.250400 )  

     reciprocal axes: (cart. coord. in units 2 pi/alat)
               b(1) = (  1.000000  0.577350 -0.000000 )  
               b(2) = (  0.000000  1.154701  0.000000 )  
               b(3) = (  0.000000 -0.000000  0.799744 )  


     PseudoPot. # 1 for H  read from file:
     /home/ilia/espresso/pseudo/H.blyp-vbc.UPF
     MD5 check sum: 64d25ad537c4b939b17faee1147b797b
     Pseudo is Norm-conserving, Zval =  1.0
     Generated by new atomic code, or converted to UPF format
     Using radial grid of  243 points,  0 beta functions with: 

     PseudoPot. # 2 for Ca read from file:
     /home/ilia/espresso/pseudo/Ca.blyp-sp-hgh.UPF
     MD5 check sum: 357a6b692114ea82b84239caae8ecfc0
     Pseudo is Norm-conserving, Zval = 10.0
     Generated in analytical, separable form
     Using radial grid of 1169 points,  5 beta functions with: 
                l(1) =   0
                l(2) =   0
                l(3) =   1
                l(4) =   1
                l(5) =   2

     atomic species   valence    mass     pseudopotential
        H              1.00     1.00700     H ( 1.00)
        Ca            10.00    40.07800     Ca( 1.00)

     24 Sym. Ops., with inversion, found (12 have fractional translation)



   Cartesian axes

     site n.     atom                  positions (alat units)
         1           Ca  tau(   1) = (   0.0000000   0.5773503   0.3126000  )
         2           Ca  tau(   2) = (   0.5000000   0.2886751   0.9378000  )
         3           H   tau(   3) = (   0.0000000   0.5773503   0.9378000  )
         4           H   tau(   4) = (   0.5000000   0.2886751   0.3126000  )
         5           H   tau(   5) = (   0.0000000   0.0000000   0.0000000  )
         6           H   tau(   6) = (   0.0000000   0.0000000   0.6252000  )

     number of k points=    36
                       cart. coord. in units 2pi/alat
        k(    1) = (   0.0833333   0.1443376   0.0666453), wk =   0.0370370
        k(    2) = (   0.0833333   0.1443376   0.1999360), wk =   0.0370370
        k(    3) = (   0.0833333   0.1443376   0.3332267), wk =   0.0370370
        k(    4) = (   0.0833333   0.3367877   0.0666453), wk =   0.0740741
        k(    5) = (   0.0833333   0.3367877   0.1999360), wk =   0.0740741
        k(    6) = (   0.0833333   0.3367877   0.3332267), wk =   0.0740741
        k(    7) = (   0.0833333   0.5292377   0.0666453), wk =   0.0740741
        k(    8) = (   0.0833333   0.5292377   0.1999360), wk =   0.0740741
        k(    9) = (   0.0833333   0.5292377   0.3332267), wk =   0.0740741
        k(   10) = (   0.0833333  -0.4330127   0.0666453), wk =   0.0740741
        k(   11) = (   0.0833333  -0.4330127   0.1999360), wk =   0.0740741
        k(   12) = (   0.0833333  -0.4330127   0.3332267), wk =   0.0740741
        k(   13) = (   0.0833333  -0.2405626   0.0666453), wk =   0.0740741
        k(   14) = (   0.0833333  -0.2405626   0.1999360), wk =   0.0740741
        k(   15) = (   0.0833333  -0.2405626   0.3332267), wk =   0.0740741
        k(   16) = (   0.0833333  -0.0481125   0.0666453), wk =   0.0370370
        k(   17) = (   0.0833333  -0.0481125   0.1999360), wk =   0.0370370
        k(   18) = (   0.0833333  -0.0481125   0.3332267), wk =   0.0370370
        k(   19) = (   0.2500000   0.4330127   0.0666453), wk =   0.0370370
        k(   20) = (   0.2500000   0.4330127   0.1999360), wk =   0.0370370
        k(   21) = (   0.2500000   0.4330127   0.3332267), wk =   0.0370370
        k(   22) = (   0.2500000   0.6254628   0.0666453), wk =   0.0740741
        k(   23) = (   0.2500000   0.6254628   0.1999360), wk =   0.0740741
        k(   24) = (   0.2500000   0.6254628   0.3332267), wk =   0.0740741
        k(   25) = (   0.2500000  -0.3367877   0.0666453), wk =   0.0740741
        k(   26) = (   0.2500000  -0.3367877   0.1999360), wk =   0.0740741
        k(   27) = (   0.2500000  -0.3367877   0.3332267), wk =   0.0740741
        k(   28) = (   0.2500000  -0.1443376   0.0666453), wk =   0.0370370
        k(   29) = (   0.2500000  -0.1443376   0.1999360), wk =   0.0370370
        k(   30) = (   0.2500000  -0.1443376   0.3332267), wk =   0.0370370
        k(   31) = (   0.4166667   0.7216878   0.0666453), wk =   0.0370370
        k(   32) = (   0.4166667   0.7216878   0.1999360), wk =   0.0370370
        k(   33) = (   0.4166667   0.7216878   0.3332267), wk =   0.0370370
        k(   34) = (   0.4166667  -0.2405626   0.0666453), wk =   0.0370370
        k(   35) = (   0.4166667  -0.2405626   0.1999360), wk =   0.0370370
        k(   36) = (   0.4166667  -0.2405626   0.3332267), wk =   0.0370370

     Dense  grid:    70221 G-vectors     FFT dimensions: (  50,  50,  64)

     Largest allocated arrays     est. size (Mb)     dimensions
        Kohn-Sham Wavefunctions         1.62 Mb     (   8823,   12)
        NL pseudopotentials             3.50 Mb     (   8823,   26)
        Each V/rho on FFT grid          2.44 Mb     ( 160000)
        Each G-vector array             0.54 Mb     (  70221)
        G-vector shells                 0.54 Mb     (  70221)
     Largest temporary arrays     est. size (Mb)     dimensions
        Auxiliary wavefunctions         6.46 Mb     (   8823,   48)
        Each subspace H/S matrix        0.04 Mb     (  48,  48)
        Each <psi_i|beta_j> matrix      0.00 Mb     (     26,   12)
        Arrays for rho mixing          39.06 Mb     ( 160000,  16)

     Initial potential from superposition of free atoms

     starting charge   23.98928, renormalised to   24.00000
     Starting wfc are   30 randomized atomic wfcs

     total cpu time spent up to now is       64.2 secs

     per-process dynamical memory:    38.9 Mb

     Self-consistent Calculation

     iteration #  1     ecut=   120.00 Ry     beta=0.30
     Davidson diagonalization with overlap
     ethr =  1.00E-02,  avg # of iterations =  2.0

     Threshold (ethr) on eigenvalues was too large:
     Diagonalizing with lowered threshold

     Davidson diagonalization with overlap
     ethr =  9.46E-04,  avg # of iterations =  1.5

     total cpu time spent up to now is      104.2 secs

     total energy              =    -151.57225362 Ry
     Harris-Foulkes estimate   =    -151.59791152 Ry
     estimated scf accuracy    <       0.24273938 Ry

     iteration #  2     ecut=   120.00 Ry     beta=0.30
     Davidson diagonalization with overlap
     ethr =  1.01E-03,  avg # of iterations =  1.0

     total cpu time spent up to now is      123.4 secs

     total energy              =    -151.50927203 Ry
     Harris-Foulkes estimate   =    -151.57351341 Ry
     estimated scf accuracy    <       0.15476846 Ry

     iteration #  3     ecut=   120.00 Ry     beta=0.30
     Davidson diagonalization with overlap
     ethr =  6.45E-04,  avg # of iterations =  2.6

     total cpu time spent up to now is      145.8 secs

     total energy              =    -151.53284486 Ry
     Harris-Foulkes estimate   =    -151.53644127 Ry
     estimated scf accuracy    <       0.01167930 Ry

     iteration #  4     ecut=   120.00 Ry     beta=0.30
     Davidson diagonalization with overlap
     ethr =  4.87E-05,  avg # of iterations =  3.0

     total cpu time spent up to now is      168.4 secs

     total energy              =    -151.53455051 Ry
     Harris-Foulkes estimate   =    -151.53679175 Ry
     estimated scf accuracy    <       0.00612978 Ry

     iteration #  5     ecut=   120.00 Ry     beta=0.30
     Davidson diagonalization with overlap
     ethr =  2.55E-05,  avg # of iterations =  3.6

     total cpu time spent up to now is      192.1 secs

     total energy              =    -151.53572127 Ry
     Harris-Foulkes estimate   =    -151.53577040 Ry
     estimated scf accuracy    <       0.00012997 Ry

     iteration #  6     ecut=   120.00 Ry     beta=0.30
     Davidson diagonalization with overlap
     ethr =  5.42E-07,  avg # of iterations =  4.1

     total cpu time spent up to now is      219.7 secs

     total energy              =    -151.53579169 Ry
     Harris-Foulkes estimate   =    -151.53579071 Ry
     estimated scf accuracy    <       0.00000918 Ry

     iteration #  7     ecut=   120.00 Ry     beta=0.30
     Davidson diagonalization with overlap
     ethr =  3.83E-08,  avg # of iterations =  3.4

     total cpu time spent up to now is      249.0 secs

     total energy              =    -151.53579453 Ry
     Harris-Foulkes estimate   =    -151.53579447 Ry
     estimated scf accuracy    <       0.00000160 Ry

     iteration #  8     ecut=   120.00 Ry     beta=0.30
     Davidson diagonalization with overlap
     ethr =  6.65E-09,  avg # of iterations =  2.1

     total cpu time spent up to now is      270.6 secs

     End of self-consistent calculation

          k = 0.0833 0.1443 0.0666 (  8810 PWs)   bands (ev):

   -33.1257 -32.9918 -13.8893 -13.4885 -13.4828 -13.3405 -13.2703 -13.2692
     1.2957   4.0372   6.7097   7.1126

          k = 0.0833 0.1443 0.1999 (  8821 PWs)   bands (ev):

   -33.1078 -33.0098 -13.8391 -13.4690 -13.4465 -13.4417 -13.2986 -13.2679
     1.6738   3.7687   6.7165   7.2435

          k = 0.0833 0.1443 0.3332 (  8822 PWs)   bands (ev):

   -33.0768 -33.0408 -13.7397 -13.6035 -13.4037 -13.3792 -13.3476 -13.3113
     2.3432   3.1315   7.0039   7.2799

          k = 0.0833 0.3368 0.0666 (  8795 PWs)   bands (ev):

   -33.0984 -33.0039 -13.8034 -13.5745 -13.5268 -13.4480 -13.3285 -13.2686
     2.2578   4.3245   5.5995   6.3661

          k = 0.0833 0.3368 0.1999 (  8792 PWs)   bands (ev):

   -33.0855 -33.0165 -13.8312 -13.6124 -13.4953 -13.4502 -13.3055 -13.2694
     2.5895   4.2747   5.7693   6.0779

          k = 0.0833 0.3368 0.3332 (  8800 PWs)   bands (ev):

   -33.0635 -33.0383 -13.8140 -13.7343 -13.4380 -13.3678 -13.3464 -13.2779
     3.1753   3.8455   5.9541   6.0143

          k = 0.0833 0.5292 0.0666 (  8793 PWs)   bands (ev):

   -33.0698 -33.0215 -13.7376 -13.6132 -13.5419 -13.5402 -13.3974 -13.2689
     3.5564   4.1612   4.5989   6.1385

          k = 0.0833 0.5292 0.1999 (  8782 PWs)   bands (ev):

   -33.0630 -33.0276 -13.8347 -13.6993 -13.5347 -13.4314 -13.3162 -13.2922
     3.8234   4.4132   4.7510   5.7032

          k = 0.0833 0.5292 0.3332 (  8761 PWs)   bands (ev):

   -33.0515 -33.0385 -13.8646 -13.8157 -13.4631 -13.3824 -13.3215 -13.2705
     4.2757   4.6750   4.8755   5.1872

          k = 0.0833-0.4330 0.0666 (  8788 PWs)   bands (ev):

   -33.0820 -33.0132 -13.7585 -13.6116 -13.5379 -13.4997 -13.3685 -13.2687
     2.8981   4.3952   4.9560   6.2187

          k = 0.0833-0.4330 0.1999 (  8788 PWs)   bands (ev):

   -33.0726 -33.0222 -13.8321 -13.6693 -13.5201 -13.4412 -13.3108 -13.2825
     3.1987   4.5012   5.1342   5.8304

          k = 0.0833-0.4330 0.3332 (  8779 PWs)   bands (ev):

   -33.0564 -33.0380 -13.8464 -13.7867 -13.4539 -13.3770 -13.3311 -13.2718
     3.7222   4.2880   5.3846   5.5659

          k = 0.0833-0.2406 0.0666 (  8796 PWs)   bands (ev):

   -33.1138 -32.9966 -13.8516 -13.5250 -13.5074 -13.3927 -13.2925 -13.2692
     1.7033   4.1826   6.3354   6.5469

          k = 0.0833-0.2406 0.1999 (  8800 PWs)   bands (ev):

   -33.0980 -33.0123 -13.8342 -13.5394 -13.4675 -13.4516 -13.3014 -13.2627
     2.0617   4.0012   6.3932   6.4924

          k = 0.0833-0.2406 0.3332 (  8820 PWs)   bands (ev):

   -33.0708 -33.0395 -13.7751 -13.6683 -13.4195 -13.3646 -13.3563 -13.2914
     2.6967   3.4394   6.4976   6.6117

          k = 0.0833-0.0481 0.0666 (  8823 PWs)   bands (ev):

   -33.1321 -32.9896 -13.9097 -13.4706 -13.4662 -13.3040 -13.2716 -13.2614
     1.0800   3.9471   6.8056   7.7276

          k = 0.0833-0.0481 0.1999 (  8809 PWs)   bands (ev):

   -33.1129 -33.0087 -13.8428 -13.4405 -13.4403 -13.4059 -13.2977 -13.2810
     1.4686   3.6372   6.9229   7.8473

          k = 0.0833-0.0481 0.3332 (  8822 PWs)   bands (ev):

   -33.0800 -33.0417 -13.7183 -13.5597 -13.3952 -13.3875 -13.3430 -13.3289
     2.1558   2.9661   7.3618   7.8028

          k = 0.2500 0.4330 0.0666 (  8799 PWs)   bands (ev):

   -33.0699 -33.0214 -13.7132 -13.6500 -13.5285 -13.5245 -13.3927 -13.2917
     3.2935   4.4185   4.7392   6.1403

          k = 0.2500 0.4330 0.1999 (  8784 PWs)   bands (ev):

   -33.0631 -33.0276 -13.8048 -13.7044 -13.5748 -13.3982 -13.3367 -13.2912
     3.5772   4.5868   4.9531   5.7617

          k = 0.2500 0.4330 0.3332 (  8784 PWs)   bands (ev):

   -33.0516 -33.0386 -13.8418 -13.8037 -13.5056 -13.4172 -13.2952 -13.2562
     4.0624   4.5417   5.2382   5.4163

          k = 0.2500 0.6255 0.0666 (  8807 PWs)   bands (ev):

   -33.0567 -33.0317 -13.6848 -13.6532 -13.5767 -13.5007 -13.4267 -13.2986
     3.8178   4.2782   4.4741   6.0858

          k = 0.2500 0.6255 0.1999 (  8800 PWs)   bands (ev):

   -33.0531 -33.0348 -13.7880 -13.7270 -13.6068 -13.3706 -13.3480 -13.3087
     4.0702   4.5236   4.6870   5.7274

          k = 0.2500 0.6255 0.3332 (  8778 PWs)   bands (ev):

   -33.0469 -33.0402 -13.8432 -13.8210 -13.5273 -13.4323 -13.2781 -13.2557
     4.4910   4.7801   4.9447   5.2339

          k = 0.2500-0.3368 0.0666 (  8789 PWs)   bands (ev):

   -33.0848 -33.0115 -13.7611 -13.6122 -13.5370 -13.4830 -13.3577 -13.2798
     2.7460   4.3977   5.1461   6.2412

          k = 0.2500-0.3368 0.1999 (  8785 PWs)   bands (ev):

   -33.0748 -33.0211 -13.8217 -13.6635 -13.5321 -13.4275 -13.3214 -13.2763
     3.0553   4.4628   5.3397   5.8812

          k = 0.2500-0.3368 0.3332 (  8777 PWs)   bands (ev):

   -33.0575 -33.0379 -13.8324 -13.7734 -13.4714 -13.3926 -13.3201 -13.2640
     3.5962   4.1897   5.5797   5.6857

          k = 0.2500-0.1443 0.0666 (  8796 PWs)   bands (ev):

   -33.1084 -32.9990 -13.8349 -13.5482 -13.5072 -13.4180 -13.3060 -13.2650
     1.8954   4.2384   6.0410   6.4798

          k = 0.2500-0.1443 0.1999 (  8799 PWs)   bands (ev):

   -33.0936 -33.0137 -13.8341 -13.5650 -13.4752 -13.4572 -13.2979 -13.2667
     2.2443   4.1015   6.1826   6.2893

          k = 0.2500-0.1443 0.3332 (  8812 PWs)   bands (ev):

   -33.0683 -33.0390 -13.7914 -13.6946 -13.4194 -13.3635 -13.3545 -13.2895
     2.8623   3.5812   6.2906   6.3639

          k = 0.4167 0.7217 0.0666 (  8798 PWs)   bands (ev):

   -33.0623 -33.0271 -13.7147 -13.6284 -13.5632 -13.5211 -13.4133 -13.2846
     3.8998   3.9994   4.5564   6.1045

          k = 0.4167 0.7217 0.1999 (  8787 PWs)   bands (ev):

   -33.0573 -33.0315 -13.8146 -13.7123 -13.5772 -13.3960 -13.3365 -13.2974
     4.1261   4.2882   4.7404   5.7050

          k = 0.4167 0.7217 0.3332 (  8761 PWs)   bands (ev):

   -33.0488 -33.0393 -13.8561 -13.8196 -13.5001 -13.4111 -13.2960 -13.2599
     4.5366   4.6745   4.8960   5.1369

          k = 0.4167-0.2406 0.0666 (  8798 PWs)   bands (ev):

   -33.0767 -33.0167 -13.7517 -13.6091 -13.5440 -13.5201 -13.3824 -13.2625
     3.1829   4.3449   4.7127   6.1804

          k = 0.4167-0.2406 0.1999 (  8788 PWs)   bands (ev):

   -33.0685 -33.0244 -13.8398 -13.6838 -13.5069 -13.4551 -13.3009 -13.2933
     3.4687   4.5342   4.8634   5.7537

          k = 0.4167-0.2406 0.3332 (  8773 PWs)   bands (ev):

   -33.0543 -33.0381 -13.8608 -13.8040 -13.4423 -13.3669 -13.3381 -13.2778
     3.9609   4.4700   5.1105   5.3710

!    total energy              =    -151.53579454 Ry
     Harris-Foulkes estimate   =    -151.53579465 Ry
     estimated scf accuracy    <       0.00000035 Ry

     The total energy is the sum of the following terms:

     one-electron contribution =     -48.47245937 Ry
     hartree contribution      =      30.10103158 Ry
     xc contribution           =     -23.62192882 Ry
     ewald contribution        =    -109.54243792 Ry

     convergence has been achieved in   8 iterations

     Forces acting on atoms (Ry/au):

     atom    1 type  2   force =     0.00000000   -0.00000000    0.00000000
     atom    2 type  2   force =     0.00000000    0.00000000    0.00000000
     atom    3 type  1   force =     0.00000000   -0.00000000   -0.00000000
     atom    4 type  1   force =     0.00000000    0.00000000    0.00000000
     atom    5 type  1   force =    -0.00000000    0.00000000   -0.00000000
     atom    6 type  1   force =     0.00000000    0.00000000   -0.00000000

     Total force =     0.000000     Total SCF correction =     0.000000


     entering subroutine stress ...

          total   stress  (Ry/bohr**3)                   (kbar)     P=   85.94
   0.00036574  -0.00000000   0.00000000         53.80     -0.00      0.00
  -0.00000000   0.00036574  -0.00000000         -0.00     53.80     -0.00
  -0.00000000   0.00000000   0.00102106         -0.00      0.00    150.20


     BFGS Geometry Optimization

     number of scf cycles    =   1
     number of bfgs steps    =   0

     enthalpy new            =    -149.9200013600 Ry

     new trust radius        =       0.3695076361 bohr
     new conv_thr            =       0.0000010000 Ry

     new unit-cell volume =    301.09895 a.u.^3 (    44.61826 Ang^3 )

CELL_PARAMETERS (alat=  7.15200000)
   0.907175553   0.000000000  -0.000000000
  -0.453587777   0.785637075   0.000000000
   0.000000000  -0.000000000   1.154817675

ATOMIC_POSITIONS (crystal)
Ca       0.333333333   0.666666667   0.250000000
Ca       0.666666667   0.333333333   0.750000000
H        0.333333333   0.666666667   0.750000000
H        0.666666667   0.333333333   0.250000000
H       -0.000000000  -0.000000000  -0.000000000
H        0.000000000   0.000000000   0.500000000



     Writing output data file CaH2_18GPa-blyp-0600.save
     NEW-OLD atomic charge density approx. for the potential
     NEW k-points:
        k(    1) = (   0.0918602   0.1591065   0.0721615), wk =   0.0370370
        k(    2) = (   0.0918602   0.1591065   0.2164844), wk =   0.0370370
        k(    3) = (   0.0918602   0.1591065   0.3608073), wk =   0.0370370
        k(    4) = (   0.0918602   0.3712486   0.0721615), wk =   0.0740741
        k(    5) = (   0.0918602   0.3712486   0.2164844), wk =   0.0740741
        k(    6) = (   0.0918602   0.3712486   0.3608073), wk =   0.0740741
        k(    7) = (   0.0918602   0.5833907   0.0721615), wk =   0.0740741
        k(    8) = (   0.0918602   0.5833907   0.2164844), wk =   0.0740741
        k(    9) = (   0.0918602   0.5833907   0.3608073), wk =   0.0740741
        k(   10) = (   0.0918602  -0.4773196   0.0721615), wk =   0.0740741
        k(   11) = (   0.0918602  -0.4773196   0.2164844), wk =   0.0740741
        k(   12) = (   0.0918602  -0.4773196   0.3608073), wk =   0.0740741
        k(   13) = (   0.0918602  -0.2651776   0.0721615), wk =   0.0740741
        k(   14) = (   0.0918602  -0.2651776   0.2164844), wk =   0.0740741
        k(   15) = (   0.0918602  -0.2651776   0.3608073), wk =   0.0740741
        k(   16) = (   0.0918602  -0.0530355   0.0721615), wk =   0.0370370
        k(   17) = (   0.0918602  -0.0530355   0.2164844), wk =   0.0370370
        k(   18) = (   0.0918602  -0.0530355   0.3608073), wk =   0.0370370
        k(   19) = (   0.2755806   0.4773196   0.0721615), wk =   0.0370370
        k(   20) = (   0.2755806   0.4773196   0.2164844), wk =   0.0370370
        k(   21) = (   0.2755806   0.4773196   0.3608073), wk =   0.0370370
        k(   22) = (   0.2755806   0.6894617   0.0721615), wk =   0.0740741
        k(   23) = (   0.2755806   0.6894617   0.2164844), wk =   0.0740741
        k(   24) = (   0.2755806   0.6894617   0.3608073), wk =   0.0740741
        k(   25) = (   0.2755806  -0.3712486   0.0721615), wk =   0.0740741
        k(   26) = (   0.2755806  -0.3712486   0.2164844), wk =   0.0740741
        k(   27) = (   0.2755806  -0.3712486   0.3608073), wk =   0.0740741
        k(   28) = (   0.2755806  -0.1591065   0.0721615), wk =   0.0370370
        k(   29) = (   0.2755806  -0.1591065   0.2164844), wk =   0.0370370
        k(   30) = (   0.2755806  -0.1591065   0.3608073), wk =   0.0370370
        k(   31) = (   0.4593010   0.7955327   0.0721615), wk =   0.0370370
        k(   32) = (   0.4593010   0.7955327   0.2164844), wk =   0.0370370
        k(   33) = (   0.4593010   0.7955327   0.3608073), wk =   0.0370370
        k(   34) = (   0.4593010  -0.2651776   0.0721615), wk =   0.0370370
        k(   35) = (   0.4593010  -0.2651776   0.2164844), wk =   0.0370370
        k(   36) = (   0.4593010  -0.2651776   0.3608073), wk =   0.0370370
     extrapolated charge   16.42688, renormalised to   24.00000

     total cpu time spent up to now is      396.3 secs

     per-process dynamical memory:    52.7 Mb

     Self-consistent Calculation

     iteration #  1     ecut=   120.00 Ry     beta=0.30
     Davidson diagonalization with overlap
     c_bands:  3 eigenvalues not converged
     c_bands:  2 eigenvalues not converged
     c_bands:  2 eigenvalues not converged
     c_bands:  1 eigenvalues not converged
     c_bands:  2 eigenvalues not converged
     c_bands:  3 eigenvalues not converged
     c_bands:  2 eigenvalues not converged
     c_bands:  2 eigenvalues not converged
     c_bands:  2 eigenvalues not converged
     c_bands:  2 eigenvalues not converged
     c_bands:  2 eigenvalues not converged
     c_bands:  2 eigenvalues not converged
     c_bands:  3 eigenvalues not converged
     c_bands:  3 eigenvalues not converged
     c_bands:  3 eigenvalues not converged
     c_bands:  3 eigenvalues not converged
     c_bands:  1 eigenvalues not converged
     c_bands:  2 eigenvalues not converged
     c_bands:  3 eigenvalues not converged
     c_bands:  1 eigenvalues not converged
     c_bands:  1 eigenvalues not converged
     c_bands:  4 eigenvalues not converged
     c_bands:  1 eigenvalues not converged
     c_bands:  3 eigenvalues not converged
     c_bands:  3 eigenvalues not converged
     c_bands:  1 eigenvalues not converged
     c_bands:  1 eigenvalues not converged
     c_bands:  2 eigenvalues not converged
     ethr =  1.00E-06,  avg # of iterations = 19.5

     negative rho (up, down):  0.100E-03 0.000E+00

     total cpu time spent up to now is      483.9 secs

     total energy              =    -144.39096472 Ry
     Harris-Foulkes estimate   =    -159.29888330 Ry
     estimated scf accuracy    <      13.50329460 Ry

     iteration #  2     ecut=   120.00 Ry     beta=0.30
     Davidson diagonalization with overlap
     ethr =  1.00E-02,  avg # of iterations =  4.3

     negative rho (up, down):  0.411E-04 0.000E+00

     total cpu time spent up to now is      517.4 secs

     total energy              =    -151.38999311 Ry
     Harris-Foulkes estimate   =    -151.43293106 Ry
     estimated scf accuracy    <       0.08665584 Ry

     iteration #  3     ecut=   120.00 Ry     beta=0.30
     Davidson diagonalization with overlap
     ethr =  3.61E-04,  avg # of iterations =  2.9

     total cpu time spent up to now is      539.3 secs

     total energy              =    -151.38599832 Ry
     Harris-Foulkes estimate   =    -151.40368896 Ry
     estimated scf accuracy    <       0.04873806 Ry

     iteration #  4     ecut=   120.00 Ry     beta=0.30
     Davidson diagonalization with overlap
     ethr =  2.03E-04,  avg # of iterations =  2.4

     total cpu time spent up to now is      560.4 secs

     total energy              =    -151.38472182 Ry
     Harris-Foulkes estimate   =    -151.38985420 Ry
     estimated scf accuracy    <       0.00797712 Ry

     iteration #  5     ecut=   120.00 Ry     beta=0.30
     Davidson diagonalization with overlap
     ethr =  3.32E-05,  avg # of iterations =  3.1

     total cpu time spent up to now is      587.9 secs

     total energy              =    -151.38779627 Ry
     Harris-Foulkes estimate   =    -151.38737946 Ry
     estimated scf accuracy    <       0.00084036 Ry

     iteration #  6     ecut=   120.00 Ry     beta=0.30
     Davidson diagonalization with overlap
     ethr =  3.50E-06,  avg # of iterations =  1.6

     total cpu time spent up to now is      608.3 secs

     total energy              =    -151.38766122 Ry
     Harris-Foulkes estimate   =    -151.38783027 Ry
     estimated scf accuracy    <       0.00027310 Ry

     iteration #  7     ecut=   120.00 Ry     beta=0.30
     Davidson diagonalization with overlap
     ethr =  1.14E-06,  avg # of iterations =  3.3

     total cpu time spent up to now is      632.7 secs

     total energy              =    -151.38773104 Ry
     Harris-Foulkes estimate   =    -151.38772556 Ry
     estimated scf accuracy    <       0.00000257 Ry

     iteration #  8     ecut=   120.00 Ry     beta=0.30
     Davidson diagonalization with overlap
     ethr =  1.07E-08,  avg # of iterations =  4.1

     total cpu time spent up to now is      665.7 secs

     total energy              =    -151.38773387 Ry
     Harris-Foulkes estimate   =    -151.38773335 Ry
     estimated scf accuracy    <       0.00000161 Ry

     iteration #  9     ecut=   120.00 Ry     beta=0.30
     Davidson diagonalization with overlap
     ethr =  6.72E-09,  avg # of iterations =  3.8

     total cpu time spent up to now is      696.9 secs

     total energy              =    -151.38773425 Ry
     Harris-Foulkes estimate   =    -151.38773488 Ry
     estimated scf accuracy    <       0.00000113 Ry

     iteration # 10     ecut=   120.00 Ry     beta=0.30
     Davidson diagonalization with overlap
     ethr =  4.70E-09,  avg # of iterations =  2.8

     total cpu time spent up to now is      719.2 secs

     End of self-consistent calculation

          k = 0.0919 0.1591 0.0722 (  8810 PWs)   bands (ev):

   -29.4106 -29.0432 -10.5357  -9.7445  -9.7189  -9.4395  -9.2852  -9.2005
     3.7464   6.4454   9.8579  10.1306

          k = 0.0919 0.1591 0.2165 (  8821 PWs)   bands (ev):

   -29.3621 -29.0932 -10.4385  -9.6995  -9.6506  -9.6200  -9.3431  -9.2347
     4.2212   6.3842   9.6477  10.2795

          k = 0.0919 0.1591 0.3608 (  8822 PWs)   bands (ev):

   -29.2777 -29.1792 -10.2409  -9.9641  -9.5549  -9.5001  -9.4425  -9.3450
     5.0228   5.8767   9.8593  10.2601

          k = 0.0919 0.3712 0.0722 (  8795 PWs)   bands (ev):

   -29.3285 -29.0692 -10.3555  -9.9958  -9.8433  -9.6872  -9.3421  -9.2888
     5.0257   6.9575   8.3119   9.1332

          k = 0.0919 0.3712 0.2165 (  8792 PWs)   bands (ev):

   -29.2935 -29.1037 -10.4526 -10.0507  -9.7583  -9.6724  -9.3679  -9.2417
     5.3981   7.0922   8.5267   8.7383

          k = 0.0919 0.3712 0.3608 (  8800 PWs)   bands (ev):

   -29.2332 -29.1637 -10.4390 -10.2875  -9.6456  -9.5000  -9.4314  -9.2708
     6.0458   6.7670   8.6581   8.7696

          k = 0.0919 0.5834 0.0722 (  8793 PWs)   bands (ev):

   -29.2441 -29.1124 -10.3293 -10.0141  -9.8966  -9.8661  -9.5192  -9.2954
     6.4281   7.0393   7.2761   8.6729

          k = 0.0919 0.5834 0.2165 (  8782 PWs)   bands (ev):

   -29.2255 -29.1290 -10.5200 -10.2313  -9.8602  -9.6220  -9.3946  -9.3063
     6.6511   7.2956   7.5957   8.3561

          k = 0.0919 0.5834 0.3608 (  8761 PWs)   bands (ev):

   -29.1939 -29.1586 -10.5817 -10.4781  -9.7122  -9.5413  -9.3766  -9.2584
     7.0200   7.3801   7.9925   8.1253

          k = 0.0919-0.4773 0.0722 (  8788 PWs)   bands (ev):

   -29.2802 -29.0914 -10.3032 -10.0658  -9.8700  -9.8006  -9.4412  -9.2927
     5.7779   7.1187   7.6561   8.8335

          k = 0.0919-0.4773 0.2165 (  8788 PWs)   bands (ev):

   -29.2542 -29.1160 -10.4872 -10.1740  -9.8227  -9.6490  -9.3827  -9.2772
     6.0823   7.3589   7.9009   8.4551

          k = 0.0919-0.4773 0.3608 (  8779 PWs)   bands (ev):

   -29.2097 -29.1591 -10.5290 -10.4118  -9.6879  -9.5262  -9.3979  -9.2596
     6.6095   7.1994   8.2141   8.3300

          k = 0.0919-0.2652 0.0722 (  8796 PWs)   bands (ev):

   -29.3748 -29.0530 -10.4537  -9.8533  -9.7900  -9.5626  -9.2870  -9.2556
     4.3070   6.7012   9.1550   9.5093

          k = 0.0919-0.2652 0.2165 (  8800 PWs)   bands (ev):

   -29.3320 -29.0964 -10.4375  -9.8762  -9.6861  -9.6719  -9.3540  -9.2229
     4.7374   6.7199   9.1683   9.3462

          k = 0.0919-0.2652 0.3608 (  8820 PWs)   bands (ev):

   -29.2577 -29.1714 -10.3344 -10.1266  -9.5967  -9.4737  -9.4640  -9.2991
     5.4755   6.2787   9.2253   9.4503

          k = 0.0919-0.0530 0.0722 (  8823 PWs)   bands (ev):

   -29.4299 -29.0388 -10.5807  -9.6905  -9.6733  -9.3501  -9.2861  -9.1791
     3.4396   6.2885  10.0675  10.9736

          k = 0.0919-0.0530 0.2165 (  8809 PWs)   bands (ev):

   -29.3785 -29.0923 -10.4433  -9.6281  -9.6220  -9.5292  -9.3385  -9.2710
     3.9392   6.1895   9.9755  11.0988

          k = 0.0919-0.0530 0.3608 (  8822 PWs)   bands (ev):

   -29.2888 -29.1840 -10.1848  -9.8508  -9.5328  -9.5162  -9.4290  -9.3894
     4.7743   5.6529  10.3468  10.9535

          k = 0.2756 0.4773 0.0722 (  8799 PWs)   bands (ev):

   -29.2451 -29.1114 -10.1862 -10.1787  -9.8575  -9.8391  -9.5068  -9.3634
     6.2397   7.2600   7.4348   8.6392

          k = 0.2756 0.4773 0.2165 (  8784 PWs)   bands (ev):

   -29.2262 -29.1283 -10.4154 -10.2561  -9.9635  -9.5529  -9.4623  -9.2965
     6.5206   7.5768   7.7368   8.2867

          k = 0.2756 0.4773 0.3608 (  8784 PWs)   bands (ev):

   -29.1942 -29.1584 -10.5083 -10.4403  -9.8340  -9.6440  -9.3132  -9.2222
     7.0049   7.5683   8.1086   8.1237

          k = 0.2756 0.6895 0.0722 (  8807 PWs)   bands (ev):

   -29.2071 -29.1383 -10.2378 -10.0931  -9.9434  -9.7868  -9.5965  -9.3853
     6.6881   7.2002   7.2970   8.5147

          k = 0.2756 0.6895 0.2165 (  8800 PWs)   bands (ev):

   -29.1967 -29.1464 -10.3953 -10.2770 -10.0601  -9.5064  -9.4754  -9.3404
     6.9084   7.5443   7.6415   8.2469

          k = 0.2756 0.6895 0.3608 (  8778 PWs)   bands (ev):

   -29.1796 -29.1611 -10.5141 -10.4701  -9.8975  -9.6887  -9.2740  -9.2223
     7.2960   7.7572   8.0214   8.0515

          k = 0.2756-0.3712 0.0722 (  8789 PWs)   bands (ev):

   -29.2887 -29.0869 -10.2749 -10.0828  -9.8916  -9.7467  -9.4166  -9.3254
     5.6276   7.1347   7.8176   8.8640

          k = 0.2756-0.3712 0.2165 (  8785 PWs)   bands (ev):

   -29.2611 -29.1133 -10.4434 -10.1702  -9.8498  -9.6202  -9.4164  -9.2596
     5.9563   7.3702   8.0772   8.4609

          k = 0.2756-0.3712 0.3608 (  8777 PWs)   bands (ev):

   -29.2136 -29.1595 -10.4856 -10.3771  -9.7375  -9.5718  -9.3702  -9.2391
     6.5292   7.1768   8.3350   8.3888

          k = 0.2756-0.1591 0.0722 (  8796 PWs)   bands (ev):

   -29.3586 -29.0582 -10.4188  -9.9267  -9.7740  -9.6348  -9.2864  -9.2755
     4.5592   6.7953   8.8160   9.3710

          k = 0.2756-0.1591 0.2165 (  8799 PWs)   bands (ev):

   -29.3185 -29.0986 -10.4460  -9.9370  -9.7091  -9.6867  -9.3443  -9.2333
     4.9682   6.8533   8.9632   9.0506

          k = 0.2756-0.1591 0.3608 (  8812 PWs)   bands (ev):

   -29.2489 -29.1684 -10.3793 -10.1921  -9.5954  -9.4709  -9.4618  -9.2970
     5.6740   6.4490   8.9971   9.1714

          k = 0.4593 0.7955 0.0722 (  8798 PWs)   bands (ev):

   -29.2229 -29.1266 -10.2940 -10.0345  -9.9334  -9.8292  -9.5632  -9.3425
     6.6919   7.0249   7.2735   8.5765

          k = 0.4593 0.7955 0.2165 (  8787 PWs)   bands (ev):

   -29.2089 -29.1384 -10.4720 -10.2474  -9.9754  -9.5402  -9.4568  -9.3173
     6.8804   7.3506   7.6116   8.2950

          k = 0.4593 0.7955 0.3608 (  8761 PWs)   bands (ev):

   -29.1854 -29.1596 -10.5550 -10.4765  -9.8172  -9.6249  -9.3155  -9.2325
     7.2217   7.5687   8.0009   8.0549

          k = 0.4593-0.2652 0.0722 (  8798 PWs)   bands (ev):

   -29.2645 -29.1001 -10.3298 -10.0344  -9.8628  -9.8591  -9.4769  -9.2759
     6.0624   7.0975   7.4253   8.7675

          k = 0.4593-0.2652 0.2165 (  8788 PWs)   bands (ev):

   -29.2416 -29.1213 -10.5228 -10.2032  -9.7873  -9.6813  -9.3578  -9.3028
     6.3285   7.3390   7.6936   8.4157

          k = 0.4593-0.2652 0.3608 (  8773 PWs)   bands (ev):

   -29.2026 -29.1586 -10.5714 -10.4548  -9.6543  -9.4972  -9.4176  -9.2764
     6.7794   7.2621   8.0744   8.2269

!    total energy              =    -151.38773437 Ry
     Harris-Foulkes estimate   =    -151.38773437 Ry
     estimated scf accuracy    <       0.00000008 Ry

     The total energy is the sum of the following terms:

     one-electron contribution =     -32.83534100 Ry
     hartree contribution      =      25.64259002 Ry
     xc contribution           =     -24.11708372 Ry
     ewald contribution        =    -120.07789968 Ry

     convergence has been achieved in  10 iterations

     Forces acting on atoms (Ry/au):

     atom    1 type  2   force =     0.00000000   -0.00000000    0.00000000
     atom    2 type  2   force =    -0.00000000    0.00000000   -0.00000000
     atom    3 type  1   force =     0.00000000   -0.00000000   -0.00000000
     atom    4 type  1   force =    -0.00000000    0.00000000   -0.00000000
     atom    5 type  1   force =    -0.00000000    0.00000000   -0.00000000
     atom    6 type  1   force =     0.00000000   -0.00000000    0.00000000

     Total force =     0.000000     Total SCF correction =     0.000000


     entering subroutine stress ...

          total   stress  (Ry/bohr**3)                   (kbar)     P=  443.51
   0.00294266  -0.00000000   0.00000000        432.88     -0.00      0.00
   0.00000000   0.00294266  -0.00000000          0.00    432.88     -0.00
  -0.00000000  -0.00000000   0.00315934         -0.00     -0.00    464.75


     number of scf cycles    =   2
     number of bfgs steps    =   1

     enthalpy old            =    -149.9200013600 Ry
     enthalpy new            =    -150.1596367121 Ry

     CASE: enthalpy_new < enthalpy_old

     new trust radius        =       0.1220505618 bohr
     new conv_thr            =       0.0000000100 Ry

     new unit-cell volume =    272.59594 a.u.^3 (    40.39455 Ang^3 )

CELL_PARAMETERS (alat=  7.15200000)
   0.875271453   0.000000000  -0.000000000
  -0.437635726   0.758007313  -0.000000000
   0.000000000  -0.000000000   1.123105910

ATOMIC_POSITIONS (crystal)
Ca       0.333333333   0.666666667   0.250000000
Ca       0.666666667   0.333333333   0.750000000
H        0.333333333   0.666666667   0.750000000
H        0.666666667   0.333333333   0.250000000
H       -0.000000000  -0.000000000  -0.000000000
H        0.000000000   0.000000000   0.500000000



     Writing output data file CaH2_18GPa-blyp-0600.save
     NEW-OLD atomic charge density approx. for the potential
     NEW k-points:
        k(    1) = (   0.0952086   0.1649061   0.0741990), wk =   0.0370370
        k(    2) = (   0.0952086   0.1649061   0.2225970), wk =   0.0370370
        k(    3) = (   0.0952086   0.1649061   0.3709950), wk =   0.0370370
        k(    4) = (   0.0952086   0.3847808   0.0741990), wk =   0.0740741
        k(    5) = (   0.0952086   0.3847808   0.2225970), wk =   0.0740741
        k(    6) = (   0.0952086   0.3847808   0.3709950), wk =   0.0740741
        k(    7) = (   0.0952086   0.6046556   0.0741990), wk =   0.0740741
        k(    8) = (   0.0952086   0.6046556   0.2225970), wk =   0.0740741
        k(    9) = (   0.0952086   0.6046556   0.3709950), wk =   0.0740741
        k(   10) = (   0.0952086  -0.4947182   0.0741990), wk =   0.0740741
        k(   11) = (   0.0952086  -0.4947182   0.2225970), wk =   0.0740741
        k(   12) = (   0.0952086  -0.4947182   0.3709950), wk =   0.0740741
        k(   13) = (   0.0952086  -0.2748434   0.0741990), wk =   0.0740741
        k(   14) = (   0.0952086  -0.2748434   0.2225970), wk =   0.0740741
        k(   15) = (   0.0952086  -0.2748434   0.3709950), wk =   0.0740741
        k(   16) = (   0.0952086  -0.0549687   0.0741990), wk =   0.0370370
        k(   17) = (   0.0952086  -0.0549687   0.2225970), wk =   0.0370370
        k(   18) = (   0.0952086  -0.0549687   0.3709950), wk =   0.0370370
        k(   19) = (   0.2856257   0.4947182   0.0741990), wk =   0.0370370
        k(   20) = (   0.2856257   0.4947182   0.2225970), wk =   0.0370370
        k(   21) = (   0.2856257   0.4947182   0.3709950), wk =   0.0370370
        k(   22) = (   0.2856257   0.7145929   0.0741990), wk =   0.0740741
        k(   23) = (   0.2856257   0.7145929   0.2225970), wk =   0.0740741
        k(   24) = (   0.2856257   0.7145929   0.3709950), wk =   0.0740741
        k(   25) = (   0.2856257  -0.3847808   0.0741990), wk =   0.0740741
        k(   26) = (   0.2856257  -0.3847808   0.2225970), wk =   0.0740741
        k(   27) = (   0.2856257  -0.3847808   0.3709950), wk =   0.0740741
        k(   28) = (   0.2856257  -0.1649061   0.0741990), wk =   0.0370370
        k(   29) = (   0.2856257  -0.1649061   0.2225970), wk =   0.0370370
        k(   30) = (   0.2856257  -0.1649061   0.3709950), wk =   0.0370370
        k(   31) = (   0.4760428   0.8245303   0.0741990), wk =   0.0370370
        k(   32) = (   0.4760428   0.8245303   0.2225970), wk =   0.0370370
        k(   33) = (   0.4760428   0.8245303   0.3709950), wk =   0.0370370
        k(   34) = (   0.4760428  -0.2748434   0.0741990), wk =   0.0370370
        k(   35) = (   0.4760428  -0.2748434   0.2225970), wk =   0.0370370
        k(   36) = (   0.4760428  -0.2748434   0.3709950), wk =   0.0370370
     extrapolated charge   21.49165, renormalised to   24.00000

     total cpu time spent up to now is      845.4 secs

     per-process dynamical memory:    52.7 Mb

     Self-consistent Calculation

     iteration #  1     ecut=   120.00 Ry     beta=0.30
     Davidson diagonalization with overlap
     ethr =  1.00E-06,  avg # of iterations =  9.2

     total cpu time spent up to now is      902.4 secs

     total energy              =    -150.93263389 Ry
     Harris-Foulkes estimate   =    -152.95750873 Ry
     estimated scf accuracy    <       0.36081257 Ry

     iteration #  2     ecut=   120.00 Ry     beta=0.30
     Davidson diagonalization with overlap
     ethr =  1.50E-03,  avg # of iterations =  3.1

     total cpu time spent up to now is      932.6 secs

     total energy              =    -151.25662036 Ry
     Harris-Foulkes estimate   =    -151.24175328 Ry
     estimated scf accuracy    <       0.00492447 Ry

     iteration #  3     ecut=   120.00 Ry     beta=0.30
     Davidson diagonalization with overlap
     ethr =  2.05E-05,  avg # of iterations =  2.3

     total cpu time spent up to now is      953.1 secs

     total energy              =    -151.28031580 Ry
     Harris-Foulkes estimate   =    -151.25700128 Ry
     estimated scf accuracy    <       0.00315736 Ry

     iteration #  4     ecut=   120.00 Ry     beta=0.30
     Davidson diagonalization with overlap
     ethr =  1.32E-05,  avg # of iterations =  2.4

     total cpu time spent up to now is      974.1 secs

     total energy              =    -151.28135781 Ry
     Harris-Foulkes estimate   =    -151.28060531 Ry
     estimated scf accuracy    <       0.00049973 Ry

     iteration #  5     ecut=   120.00 Ry     beta=0.30
     Davidson diagonalization with overlap
     ethr =  2.08E-06,  avg # of iterations =  3.1

     total cpu time spent up to now is     1003.5 secs

     total energy              =    -151.28172822 Ry
     Harris-Foulkes estimate   =    -151.28149557 Ry
     estimated scf accuracy    <       0.00002596 Ry

     iteration #  6     ecut=   120.00 Ry     beta=0.30
     Davidson diagonalization with overlap
     ethr =  1.08E-07,  avg # of iterations =  3.3

     total cpu time spent up to now is     1034.0 secs

     total energy              =    -151.28179360 Ry
     Harris-Foulkes estimate   =    -151.28174104 Ry
     estimated scf accuracy    <       0.00003621 Ry

     iteration #  7     ecut=   120.00 Ry     beta=0.30
     Davidson diagonalization with overlap
     ethr =  1.08E-07,  avg # of iterations =  3.0

     total cpu time spent up to now is     1063.1 secs

     total energy              =    -151.28182952 Ry
     Harris-Foulkes estimate   =    -151.28180185 Ry
     estimated scf accuracy    <       0.00000022 Ry

     iteration #  8     ecut=   120.00 Ry     beta=0.30
     Davidson diagonalization with overlap
     ethr =  8.96E-10,  avg # of iterations =  3.8

     total cpu time spent up to now is     1089.7 secs

     total energy              =    -151.28184079 Ry
     Harris-Foulkes estimate   =    -151.28182960 Ry
     estimated scf accuracy    <       0.00000012 Ry

     iteration #  9     ecut=   120.00 Ry     beta=0.30
     Davidson diagonalization with overlap
     ethr =  4.95E-10,  avg # of iterations =  2.5

     total cpu time spent up to now is     1113.3 secs

     total energy              =    -151.28184096 Ry
     Harris-Foulkes estimate   =    -151.28184082 Ry
     estimated scf accuracy    <       0.00000003 Ry

     iteration # 10     ecut=   120.00 Ry     beta=0.30
     Davidson diagonalization with overlap
     ethr =  1.10E-10,  avg # of iterations =  3.0

     total cpu time spent up to now is     1142.2 secs

     End of self-consistent calculation

          k = 0.0952 0.1649 0.0742 (  8810 PWs)   bands (ev):

   -27.9517 -27.4358  -9.2475  -8.2408  -8.2005  -7.8606  -7.6516  -7.5153
     4.9278   7.4927  11.2411  11.4084

          k = 0.0952 0.1649 0.2226 (  8821 PWs)   bands (ev):

   -27.8844 -27.5068  -9.1245  -8.1881  -8.1188  -8.0729  -7.7248  -7.5712
     5.4407   7.5420  10.9170  11.5609

          k = 0.0952 0.1649 0.3710 (  8822 PWs)   bands (ev):

   -27.7665 -27.6283  -8.8743  -8.5238  -7.9911  -7.9230  -7.8501  -7.7198
     6.2870   7.1409  11.0553  11.5062

          k = 0.0952 0.3848 0.0742 (  8795 PWs)   bands (ev):

   -27.8324 -27.4678  -9.0186  -8.6001  -8.3792  -8.1865  -7.7039  -7.6597
     6.3462   8.1090   9.5006  10.3198

          k = 0.0952 0.3848 0.2226 (  8792 PWs)   bands (ev):

   -27.7835 -27.5165  -9.1559  -8.6651  -8.2587  -8.1571  -7.7626  -7.5841
     6.7183   8.3387   9.7163   9.9051

          k = 0.0952 0.3848 0.3710 (  8800 PWs)   bands (ev):

   -27.6988 -27.6010  -9.1454  -8.9583  -8.1173  -7.9324  -7.8394  -7.6265
     7.3659   8.0887   9.8093   9.9910

          k = 0.0952 0.6047 0.0742 (  8793 PWs)   bands (ev):

   -27.7101 -27.5256  -9.0425  -8.5904  -8.4696  -8.3999  -7.9413  -7.6723
     7.5939   8.2802   8.6829   9.7541

          k = 0.0952 0.6047 0.2226 (  8782 PWs)   bands (ev):

   -27.6839 -27.5487  -9.2696  -8.8973  -8.3973  -8.0883  -7.8011  -7.6736
     7.8043   8.4932   9.0035   9.6063

          k = 0.0952 0.6047 0.3710 (  8761 PWs)   bands (ev):

   -27.6395 -27.5900  -9.3442  -9.2113  -8.2096  -7.9909  -7.7697  -7.6131
     8.1326   8.4541   9.4651   9.6138

          k = 0.0952-0.4947 0.0742 (  8788 PWs)   bands (ev):

   -27.7623 -27.4970  -8.9819  -8.6760  -8.4180  -8.3330  -7.8354  -7.6674
     7.0993   8.2796   8.9297   9.9489

          k = 0.0952-0.4947 0.2226 (  8788 PWs)   bands (ev):

   -27.7258 -27.5315  -9.2158  -8.8252  -8.3465  -8.1257  -7.7843  -7.6332
     7.3787   8.5739   9.1658   9.6510

          k = 0.0952-0.4947 0.3710 (  8779 PWs)   bands (ev):

   -27.6632 -27.5920  -9.2705  -9.1238  -8.1760  -7.9695  -7.7971  -7.6137
     7.8668   8.4250   9.4996   9.6535

          k = 0.0952-0.2748 0.0742 (  8796 PWs)   bands (ev):

   -27.8997 -27.4474  -9.1414  -8.3987  -8.3030  -8.0235  -7.6559  -7.5886
     5.5622   7.8039  10.3598  10.7941

          k = 0.0952-0.2748 0.2226 (  8800 PWs)   bands (ev):

   -27.8401 -27.5089  -9.1269  -8.4312  -8.1594  -8.1538  -7.7416  -7.5572
     6.0140   7.9294  10.3598  10.5665

          k = 0.0952-0.2748 0.3710 (  8820 PWs)   bands (ev):

   -27.7360 -27.6148  -9.0015  -8.7426  -8.0492  -7.8942  -7.8796  -7.6614
     6.7792   7.5854  10.3715  10.6549

          k = 0.0952-0.0550 0.0742 (  8823 PWs)   bands (ev):

   -27.9799 -27.4308  -9.3059  -8.1624  -8.1356  -7.7390  -7.6515  -7.4863
     4.5742   7.3007  11.5133  12.3459

          k = 0.0952-0.0550 0.2226 (  8809 PWs)   bands (ev):

   -27.9086 -27.5067  -9.1298  -8.0837  -8.0718  -7.9595  -7.7173  -7.6192
     5.1216   7.3138  11.3088  12.4654

          k = 0.0952-0.0550 0.3710 (  8822 PWs)   bands (ev):

   -27.7836 -27.6365  -8.7986  -8.3706  -7.9604  -7.9406  -7.8306  -7.7776
     6.0109   6.8877  11.6014  12.2638

          k = 0.2856 0.4947 0.0742 (  8799 PWs)   bands (ev):

   -27.7119 -27.5238  -8.8457  -8.8146  -8.4023  -8.3810  -7.9234  -7.7706
     7.6083   8.5211   8.6512   9.6888

          k = 0.2856 0.4947 0.2226 (  8784 PWs)   bands (ev):

   -27.6852 -27.5474  -9.1157  -8.9352  -8.5403  -8.0024  -7.8989  -7.6588
     7.8587   8.9020   9.0068   9.3739

          k = 0.2856 0.4947 0.3710 (  8784 PWs)   bands (ev):

   -27.6400 -27.5895  -9.2382  -9.1569  -8.3831  -8.1388  -7.6843  -7.5637
     8.2960   8.8359   9.4043   9.4387

          k = 0.2856 0.7146 0.0742 (  8807 PWs)   bands (ev):

   -27.6574 -27.5609  -8.9220  -8.7027  -8.5208  -8.3013  -8.0445  -7.8028
     7.9572   8.5280   8.6099   9.5299

          k = 0.2856 0.7146 0.2226 (  8800 PWs)   bands (ev):

   -27.6426 -27.5719  -9.0979  -8.9496  -8.6774  -7.9607  -7.8997  -7.7182
     8.1552   8.8984   8.9943   9.3564

          k = 0.2856 0.7146 0.3710 (  8778 PWs)   bands (ev):

   -27.6183 -27.5924  -9.2468  -9.1916  -8.4739  -8.2033  -7.6329  -7.5644
     8.5036   8.9049   9.4686   9.4830

          k = 0.2856-0.3848 0.0742 (  8789 PWs)   bands (ev):

   -27.7748 -27.4909  -8.9225  -8.7135  -8.4527  -8.2592  -7.8028  -7.7144
     6.9908   8.3376   9.0023   9.9767

          k = 0.2856-0.3848 0.2226 (  8785 PWs)   bands (ev):

   -27.7359 -27.5280  -9.1490  -8.8236  -8.3835  -8.0895  -7.8331  -7.6088
     7.3047   8.6574   9.2875   9.5799

          k = 0.2856-0.3848 0.3710 (  8777 PWs)   bands (ev):

   -27.6692 -27.5930  -9.2083  -9.0761  -8.2466  -8.0352  -7.7590  -7.5851
     7.8554   8.5027   9.5185   9.6369

          k = 0.2856-0.1649 0.0742 (  8796 PWs)   bands (ev):

   -27.8762 -27.4538  -9.0972  -8.5049  -8.2716  -8.1286  -7.6400  -7.6292
     5.8384   7.9133  10.0152  10.6206

          k = 0.2856-0.1649 0.2226 (  8799 PWs)   bands (ev):

   -27.8201 -27.5109  -9.1417  -8.5136  -8.1901  -8.1757  -7.7278  -7.5722
     6.2603   8.0741  10.1388  10.2654

          k = 0.2856-0.1649 0.3710 (  8812 PWs)   bands (ev):

   -27.7227 -27.6095  -9.0636  -8.8309  -8.0466  -7.8913  -7.8775  -7.6606
     6.9832   7.7606  10.1425  10.3806

          k = 0.4760 0.8245 0.0742 (  8798 PWs)   bands (ev):

   -27.6797 -27.5449  -8.9980  -8.6138  -8.5180  -8.3553  -8.0008  -7.7403
     7.8444   8.3958   8.6178   9.6203

          k = 0.4760 0.8245 0.2226 (  8787 PWs)   bands (ev):

   -27.6599 -27.5612  -9.2056  -8.9127  -8.5576  -7.9808  -7.8909  -7.6883
     8.0409   8.6549   8.9881   9.4934

          k = 0.4760 0.8245 0.3710 (  8761 PWs)   bands (ev):

   -27.6268 -27.5907  -9.3060  -9.2046  -8.3586  -8.1109  -7.6877  -7.5781
     8.3555   8.6701   9.4661   9.5516

          k = 0.4760-0.2748 0.0742 (  8798 PWs)   bands (ev):

   -27.7395 -27.5089  -9.0344  -8.6240  -8.4244  -8.3904  -7.8835  -7.6439
     7.3118   8.2416   8.8056   9.8753

          k = 0.4760-0.2748 0.2226 (  8788 PWs)   bands (ev):

   -27.7073 -27.5385  -9.2699  -8.8629  -8.2954  -8.1697  -7.7493  -7.6682
     7.5489   8.4866   9.0625   9.6642

          k = 0.4760-0.2748 0.3710 (  8773 PWs)   bands (ev):

   -27.6525 -27.5907  -9.3301  -9.1820  -8.1274  -7.9276  -7.8257  -7.6378
     7.9483   8.3778   9.4784   9.6489

!    total energy              =    -151.28184141 Ry
     Harris-Foulkes estimate   =    -151.28184096 Ry
     estimated scf accuracy    <          3.0E-09 Ry

     The total energy is the sum of the following terms:

     one-electron contribution =     -26.85742536 Ry
     hartree contribution      =      24.04404171 Ry
     xc contribution           =     -24.32464462 Ry
     ewald contribution        =    -124.14381315 Ry

     convergence has been achieved in  10 iterations

     Forces acting on atoms (Ry/au):

     atom    1 type  2   force =    -0.00000000   -0.00000000   -0.00000000
     atom    2 type  2   force =     0.00000000    0.00000000    0.00000000
     atom    3 type  1   force =    -0.00000000    0.00000000   -0.00000000
     atom    4 type  1   force =    -0.00000000    0.00000000   -0.00000000
     atom    5 type  1   force =    -0.00000000    0.00000000   -0.00000000
     atom    6 type  1   force =     0.00000000   -0.00000000   -0.00000000

     Total force =     0.000000     Total SCF correction =     0.000000


     entering subroutine stress ...

          total   stress  (Ry/bohr**3)                   (kbar)     P=  663.18
   0.00457264  -0.00000000   0.00000000        672.66     -0.00      0.00
  -0.00000000   0.00457264   0.00000000         -0.00    672.66      0.00
  -0.00000000   0.00000000   0.00437937         -0.00      0.00    644.23


     number of scf cycles    =   3
     number of bfgs steps    =   2

     enthalpy old            =    -150.1596367121 Ry
     enthalpy new            =    -150.1699994835 Ry

     CASE: enthalpy_new < enthalpy_old

     new trust radius        =       0.0348605712 bohr
     new conv_thr            =       0.0000000100 Ry

     new unit-cell volume =    280.21969 a.u.^3 (    41.52427 Ang^3 )

CELL_PARAMETERS (alat=  7.15200000)
   0.884511785  -0.000000000  -0.000000000
  -0.442255892   0.766009675   0.000000000
   0.000000000  -0.000000000   1.130520026

ATOMIC_POSITIONS (crystal)
Ca       0.333333333   0.666666667   0.250000000
Ca       0.666666667   0.333333333   0.750000000
H        0.333333333   0.666666667   0.750000000
H        0.666666667   0.333333333   0.250000000
H       -0.000000000   0.000000000  -0.000000000
H        0.000000000   0.000000000   0.500000000



     Writing output data file CaH2_18GPa-blyp-0600.save
     NEW-OLD atomic charge density approx. for the potential
     NEW k-points:
        k(    1) = (   0.0942139   0.1631833   0.0737124), wk =   0.0370370
        k(    2) = (   0.0942139   0.1631833   0.2211372), wk =   0.0370370
        k(    3) = (   0.0942139   0.1631833   0.3685620), wk =   0.0370370
        k(    4) = (   0.0942139   0.3807611   0.0737124), wk =   0.0740741
        k(    5) = (   0.0942139   0.3807611   0.2211372), wk =   0.0740741
        k(    6) = (   0.0942139   0.3807611   0.3685620), wk =   0.0740741
        k(    7) = (   0.0942139   0.5983388   0.0737124), wk =   0.0740741
        k(    8) = (   0.0942139   0.5983388   0.2211372), wk =   0.0740741
        k(    9) = (   0.0942139   0.5983388   0.3685620), wk =   0.0740741
        k(   10) = (   0.0942139  -0.4895500   0.0737124), wk =   0.0740741
        k(   11) = (   0.0942139  -0.4895500   0.2211372), wk =   0.0740741
        k(   12) = (   0.0942139  -0.4895500   0.3685620), wk =   0.0740741
        k(   13) = (   0.0942139  -0.2719722   0.0737124), wk =   0.0740741
        k(   14) = (   0.0942139  -0.2719722   0.2211372), wk =   0.0740741
        k(   15) = (   0.0942139  -0.2719722   0.3685620), wk =   0.0740741
        k(   16) = (   0.0942139  -0.0543944   0.0737124), wk =   0.0370370
        k(   17) = (   0.0942139  -0.0543944   0.2211372), wk =   0.0370370
        k(   18) = (   0.0942139  -0.0543944   0.3685620), wk =   0.0370370
        k(   19) = (   0.2826418   0.4895500   0.0737124), wk =   0.0370370
        k(   20) = (   0.2826418   0.4895500   0.2211372), wk =   0.0370370
        k(   21) = (   0.2826418   0.4895500   0.3685620), wk =   0.0370370
        k(   22) = (   0.2826418   0.7071277   0.0737124), wk =   0.0740741
        k(   23) = (   0.2826418   0.7071277   0.2211372), wk =   0.0740741
        k(   24) = (   0.2826418   0.7071277   0.3685620), wk =   0.0740741
        k(   25) = (   0.2826418  -0.3807611   0.0737124), wk =   0.0740741
        k(   26) = (   0.2826418  -0.3807611   0.2211372), wk =   0.0740741
        k(   27) = (   0.2826418  -0.3807611   0.3685620), wk =   0.0740741
        k(   28) = (   0.2826418  -0.1631833   0.0737124), wk =   0.0370370
        k(   29) = (   0.2826418  -0.1631833   0.2211372), wk =   0.0370370
        k(   30) = (   0.2826418  -0.1631833   0.3685620), wk =   0.0370370
        k(   31) = (   0.4710697   0.8159166   0.0737124), wk =   0.0370370
        k(   32) = (   0.4710697   0.8159166   0.2211372), wk =   0.0370370
        k(   33) = (   0.4710697   0.8159166   0.3685620), wk =   0.0370370
        k(   34) = (   0.4710697  -0.2719722   0.0737124), wk =   0.0370370
        k(   35) = (   0.4710697  -0.2719722   0.2211372), wk =   0.0370370
        k(   36) = (   0.4710697  -0.2719722   0.3685620), wk =   0.0370370
     extrapolated charge   24.65266, renormalised to   24.00000

     total cpu time spent up to now is     1268.7 secs

     per-process dynamical memory:    52.7 Mb

     Self-consistent Calculation

     iteration #  1     ecut=   120.00 Ry     beta=0.30
     Davidson diagonalization with overlap
     ethr =  1.00E-06,  avg # of iterations =  5.3

     total cpu time spent up to now is     1312.7 secs

     total energy              =    -151.29497126 Ry
     Harris-Foulkes estimate   =    -150.82817290 Ry
     estimated scf accuracy    <       0.01297869 Ry

     iteration #  2     ecut=   120.00 Ry     beta=0.30
     Davidson diagonalization with overlap
     ethr =  5.41E-05,  avg # of iterations =  3.1

     total cpu time spent up to now is     1343.1 secs

     total energy              =    -151.31233636 Ry
     Harris-Foulkes estimate   =    -151.31079127 Ry
     estimated scf accuracy    <       0.00076583 Ry

     iteration #  3     ecut=   120.00 Ry     beta=0.30
     Davidson diagonalization with overlap
     ethr =  3.19E-06,  avg # of iterations =  1.2

     total cpu time spent up to now is     1362.6 secs

     total energy              =    -151.31442922 Ry
     Harris-Foulkes estimate   =    -151.31236277 Ry
     estimated scf accuracy    <       0.00050403 Ry

     iteration #  4     ecut=   120.00 Ry     beta=0.30
     Davidson diagonalization with overlap
     ethr =  2.10E-06,  avg # of iterations =  2.7

     total cpu time spent up to now is     1388.8 secs

     total energy              =    -151.31449059 Ry
     Harris-Foulkes estimate   =    -151.31450912 Ry
     estimated scf accuracy    <       0.00001445 Ry

     iteration #  5     ecut=   120.00 Ry     beta=0.30
     Davidson diagonalization with overlap
     ethr =  6.02E-08,  avg # of iterations =  3.3

     total cpu time spent up to now is     1419.5 secs

     total energy              =    -151.31450780 Ry
     Harris-Foulkes estimate   =    -151.31449551 Ry
     estimated scf accuracy    <       0.00000257 Ry

     iteration #  6     ecut=   120.00 Ry     beta=0.30
     Davidson diagonalization with overlap
     ethr =  1.07E-08,  avg # of iterations =  1.5

     total cpu time spent up to now is     1439.7 secs

     total energy              =    -151.31450807 Ry
     Harris-Foulkes estimate   =    -151.31450790 Ry
     estimated scf accuracy    <       0.00000025 Ry

     iteration #  7     ecut=   120.00 Ry     beta=0.30
     Davidson diagonalization with overlap
     ethr =  1.06E-09,  avg # of iterations =  2.3

     total cpu time spent up to now is     1461.2 secs

     End of self-consistent calculation

          k = 0.0942 0.1632 0.0737 (  8810 PWs)   bands (ev):

   -28.3649 -27.8932  -9.6106  -8.6703  -8.6353  -8.3101  -8.1180  -7.9967
     4.5806   7.1880  10.8554  11.0359

          k = 0.0942 0.1632 0.2211 (  8821 PWs)   bands (ev):

   -28.3032 -27.9579  -9.4960  -8.6189  -8.5560  -8.5153  -8.1870  -8.0460
     5.0843   7.2087  10.5593  11.1905

          k = 0.0942 0.1632 0.3686 (  8822 PWs)   bands (ev):

   -28.1952 -28.0688  -9.2620  -8.9334  -8.4385  -8.3729  -8.3053  -8.1835
     5.9206   6.7772  10.7169  11.1511

          k = 0.0942 0.3808 0.0737 (  8795 PWs)   bands (ev):

   -28.2573 -27.9240  -9.3965  -8.9946  -8.7957  -8.6127  -8.1710  -8.1241
     5.9577   7.7723   9.1528   9.9912

          k = 0.0942 0.3808 0.2211 (  8792 PWs)   bands (ev):

   -28.2125 -27.9685  -9.5226  -9.0567  -8.6868  -8.5871  -8.2202  -8.0562
     6.3326   7.9782   9.3750   9.5717

          k = 0.0942 0.3808 0.3686 (  8800 PWs)   bands (ev):

   -28.1350 -28.0456  -9.5115  -9.3345  -8.5535  -8.3793  -8.2918  -8.0943
     6.9842   7.7091   9.4806   9.6388

          k = 0.0942 0.5983 0.0737 (  8793 PWs)   bands (ev):

   -28.1467 -27.9779  -9.4034  -8.9939  -8.8721  -8.8179  -8.3902  -8.1343
     7.2673   7.9076   8.2644   9.4550

          k = 0.0942 0.5983 0.2211 (  8782 PWs)   bands (ev):

   -28.1228 -27.9991  -9.6213  -9.2733  -8.8142  -8.5234  -8.2544  -8.1378
     7.4782   8.1496   8.5898   9.2429

          k = 0.0942 0.5983 0.3686 (  8761 PWs)   bands (ev):

   -28.0822 -28.0368  -9.6929  -9.5685  -8.6376  -8.4323  -8.2259  -8.0806
     7.8169   8.1506   9.0376   9.1781

          k = 0.0942-0.4895 0.0737 (  8788 PWs)   bands (ev):

   -28.1940 -27.9514  -9.3537  -9.0691  -8.8296  -8.7498  -8.2928  -8.1303
     6.7153   7.9392   8.5531   9.6405

          k = 0.0942-0.4895 0.2211 (  8788 PWs)   bands (ev):

   -28.1606 -27.9829  -9.5744  -9.2057  -8.7674  -8.5578  -8.2394  -8.1010
     7.0048   8.2238   8.7994   9.3054

          k = 0.0942-0.4895 0.3686 (  8779 PWs)   bands (ev):

   -28.1033 -28.0383  -9.6257  -9.4874  -8.6070  -8.4129  -8.2517  -8.0816
     7.5084   8.0800   9.1268   9.2639

          k = 0.0942-0.2720 0.0737 (  8796 PWs)   bands (ev):

   -28.3180 -27.9045  -9.5118  -8.8121  -8.7273  -8.4611  -8.1212  -8.0645
     5.1926   7.4819  10.0087  10.4371

          k = 0.0942-0.2720 0.2211 (  8800 PWs)   bands (ev):

   -28.2633 -27.9606  -9.4977  -8.8412  -8.5960  -8.5855  -8.2017  -8.0321
     5.6403   7.5800  10.0245  10.2134

          k = 0.0942-0.2720 0.3686 (  8820 PWs)   bands (ev):

   -28.1681 -28.0573  -9.3795  -9.1354  -8.4915  -8.3441  -8.3315  -8.1279
     6.4009   7.2086  10.0466  10.3106

          k = 0.0942-0.0544 0.0737 (  8823 PWs)   bands (ev):

   -28.3904 -27.8882  -9.6648  -8.6000  -8.5765  -8.1985  -8.1184  -7.9699
     4.2414   7.0071  11.1091  11.9450

          k = 0.0942-0.0544 0.2211 (  8809 PWs)   bands (ev):

   -28.3249 -27.9574  -9.5008  -8.5256  -8.5160  -8.4071  -8.1806  -8.0910
     4.7766   6.9911  10.9327  12.0703

          k = 0.0942-0.0544 0.3686 (  8822 PWs)   bands (ev):

   -28.2103 -28.0758  -9.1918  -8.7918  -8.4106  -8.3911  -8.2878  -8.2381
     5.6531   6.5332  11.2469  11.8915

          k = 0.2826 0.4895 0.0737 (  8799 PWs)   bands (ev):

   -28.1482 -27.9764  -9.2217  -9.2023  -8.8143  -8.7943  -8.3742  -8.2224
     7.2068   8.1513   8.2930   9.3998

          k = 0.2826 0.4895 0.2211 (  8784 PWs)   bands (ev):

   -28.1239 -27.9980  -9.4831  -9.3075  -8.9448  -8.4417  -8.3426  -8.1246
     7.4693   8.5174   8.6345   9.0688

          k = 0.2826 0.4895 0.3686 (  8784 PWs)   bands (ev):

   -28.0826 -28.0365  -9.5973  -9.5195  -8.7947  -8.5655  -8.1471  -8.0353
     7.9254   8.4814   9.0271   9.0510

          k = 0.2826 0.7071 0.0737 (  8807 PWs)   bands (ev):

   -28.0988 -28.0106  -9.2928  -9.0960  -8.9228  -8.7227  -8.4858  -8.2511
     7.5883   8.1359   8.2223   9.2507

          k = 0.2826 0.7071 0.2211 (  8800 PWs)   bands (ev):

   -28.0853 -28.0207  -9.4642  -9.3245  -9.0692  -8.3981  -8.3471  -8.1792
     7.7931   8.5063   8.6004   9.0400

          k = 0.2826 0.7071 0.3686 (  8778 PWs)   bands (ev):

   -28.0631 -28.0395  -9.6051  -9.5531  -8.8768  -8.6236  -8.0993  -8.0357
     8.1556   8.5794   9.0531   9.0624

          k = 0.2826-0.3808 0.0737 (  8789 PWs)   bands (ev):

   -28.2052 -27.9458  -9.3047  -9.1006  -8.8600  -8.6817  -8.2627  -8.1725
     6.5898   7.9854   8.6550   9.6695

          k = 0.2826-0.3808 0.2211 (  8785 PWs)   bands (ev):

   -28.1697 -27.9797  -9.5149  -9.2036  -8.8014  -8.5234  -8.2833  -8.0787
     6.9111   8.2841   8.9368   9.2633

          k = 0.2826-0.3808 0.3686 (  8777 PWs)   bands (ev):

   -28.1086 -28.0391  -9.5695  -9.4439  -8.6709  -8.4721  -8.2168  -8.0556
     7.4730   8.1242   9.1781   9.2744

          k = 0.2826-0.1632 0.0737 (  8796 PWs)   bands (ev):

   -28.2968 -27.9107  -9.4705  -8.9075  -8.7018  -8.5551  -8.1066  -8.1022
     5.4618   7.5868   9.6651  10.2737

          k = 0.2826-0.1632 0.2211 (  8799 PWs)   bands (ev):

   -28.2454 -27.9628  -9.5107  -8.9167  -8.6247  -8.6047  -8.1892  -8.0455
     5.8825   7.7214   9.8065   9.9143

          k = 0.2826-0.1632 0.3686 (  8812 PWs)   bands (ev):

   -28.1562 -28.0528  -9.4364  -9.2167  -8.4894  -8.3402  -8.3300  -8.1263
     6.6039   7.3829   9.8169  10.0337

          k = 0.4711 0.8159 0.0737 (  8798 PWs)   bands (ev):

   -28.1192 -27.9958  -9.3619  -9.0177  -8.9168  -8.7739  -8.4450  -8.1953
     7.5144   7.9946   8.2142   9.3322

          k = 0.4711 0.8159 0.2211 (  8787 PWs)   bands (ev):

   -28.1011 -28.0107  -9.5622  -9.2894  -8.9604  -8.4234  -8.3351  -8.1514
     7.7072   8.2862   8.5814   9.1458

          k = 0.4711 0.8159 0.3686 (  8761 PWs)   bands (ev):

   -28.0708 -28.0377  -9.6584  -9.5637  -8.7727  -8.5405  -8.1502  -8.0483
     8.0301   8.3582   9.0401   9.1169

          k = 0.4711-0.2720 0.0737 (  8798 PWs)   bands (ev):

   -28.1733 -27.9624  -9.3979  -9.0231  -8.8287  -8.8114  -8.3371  -8.1089
     6.9565   7.8990   8.3979   9.5686

          k = 0.4711-0.2720 0.2211 (  8788 PWs)   bands (ev):

   -28.1440 -27.9895  -9.6226  -9.2407  -8.7217  -8.5977  -8.2077  -8.1327
     7.2024   8.1547   8.6642   9.3012

          k = 0.4711-0.2720 0.3686 (  8773 PWs)   bands (ev):

   -28.0938 -28.0373  -9.6799  -9.5409  -8.5633  -8.3753  -8.2772  -8.1032
     7.6182   8.0646   9.0702   9.2295

!    total energy              =    -151.31450857 Ry
     Harris-Foulkes estimate   =    -151.31450809 Ry
     estimated scf accuracy    <          8.0E-09 Ry

     The total energy is the sum of the following terms:

     one-electron contribution =     -28.53872404 Ry
     hartree contribution      =      24.48797368 Ry
     xc contribution           =     -24.26511427 Ry
     ewald contribution        =    -122.99864394 Ry

     convergence has been achieved in   7 iterations

     Forces acting on atoms (Ry/au):

     atom    1 type  2   force =    -0.00000000    0.00000000    0.00000000
     atom    2 type  2   force =     0.00000000   -0.00000000   -0.00000000
     atom    3 type  1   force =    -0.00000000   -0.00000000   -0.00000000
     atom    4 type  1   force =     0.00000000    0.00000000    0.00000000
     atom    5 type  1   force =    -0.00000000   -0.00000000    0.00000000
     atom    6 type  1   force =     0.00000000    0.00000000    0.00000000

     Total force =     0.000000     Total SCF correction =     0.000000


     entering subroutine stress ...

          total   stress  (Ry/bohr**3)                   (kbar)     P=  595.71
   0.00405875   0.00000000   0.00000000        597.06      0.00      0.00
  -0.00000000   0.00405875   0.00000000         -0.00    597.06      0.00
   0.00000000   0.00000000   0.00403125          0.00      0.00    593.02


     number of scf cycles    =   4
     number of bfgs steps    =   3

     enthalpy old            =    -150.1699994835 Ry
     enthalpy new            =    -150.1715715194 Ry

     CASE: enthalpy_new < enthalpy_old

     new trust radius        =       0.0032779990 bohr
     new conv_thr            =       0.0000000100 Ry

     new unit-cell volume =    279.72737 a.u.^3 (    41.45132 Ang^3 )

CELL_PARAMETERS (alat=  7.15200000)
   0.884167378  -0.000000000  -0.000000000
  -0.442083689   0.765711410   0.000000000
   0.000000000   0.000000000   1.129413127

ATOMIC_POSITIONS (crystal)
Ca       0.333333333   0.666666667   0.250000000
Ca       0.666666667   0.333333333   0.750000000
H        0.333333333   0.666666667   0.750000000
H        0.666666667   0.333333333   0.250000000
H       -0.000000000  -0.000000000  -0.000000000
H        0.000000000   0.000000000   0.500000000



     Writing output data file CaH2_18GPa-blyp-0600.save
     NEW-OLD atomic charge density approx. for the potential
     NEW k-points:
        k(    1) = (   0.0942506   0.1632469   0.0737846), wk =   0.0370370
        k(    2) = (   0.0942506   0.1632469   0.2213539), wk =   0.0370370
        k(    3) = (   0.0942506   0.1632469   0.3689232), wk =   0.0370370
        k(    4) = (   0.0942506   0.3809094   0.0737846), wk =   0.0740741
        k(    5) = (   0.0942506   0.3809094   0.2213539), wk =   0.0740741
        k(    6) = (   0.0942506   0.3809094   0.3689232), wk =   0.0740741
        k(    7) = (   0.0942506   0.5985719   0.0737846), wk =   0.0740741
        k(    8) = (   0.0942506   0.5985719   0.2213539), wk =   0.0740741
        k(    9) = (   0.0942506   0.5985719   0.3689232), wk =   0.0740741
        k(   10) = (   0.0942506  -0.4897406   0.0737846), wk =   0.0740741
        k(   11) = (   0.0942506  -0.4897406   0.2213539), wk =   0.0740741
        k(   12) = (   0.0942506  -0.4897406   0.3689232), wk =   0.0740741
        k(   13) = (   0.0942506  -0.2720781   0.0737846), wk =   0.0740741
        k(   14) = (   0.0942506  -0.2720781   0.2213539), wk =   0.0740741
        k(   15) = (   0.0942506  -0.2720781   0.3689232), wk =   0.0740741
        k(   16) = (   0.0942506  -0.0544156   0.0737846), wk =   0.0370370
        k(   17) = (   0.0942506  -0.0544156   0.2213539), wk =   0.0370370
        k(   18) = (   0.0942506  -0.0544156   0.3689232), wk =   0.0370370
        k(   19) = (   0.2827519   0.4897406   0.0737846), wk =   0.0370370
        k(   20) = (   0.2827519   0.4897406   0.2213539), wk =   0.0370370
        k(   21) = (   0.2827519   0.4897406   0.3689232), wk =   0.0370370
        k(   22) = (   0.2827519   0.7074032   0.0737846), wk =   0.0740741
        k(   23) = (   0.2827519   0.7074032   0.2213539), wk =   0.0740741
        k(   24) = (   0.2827519   0.7074032   0.3689232), wk =   0.0740741
        k(   25) = (   0.2827519  -0.3809094   0.0737846), wk =   0.0740741
        k(   26) = (   0.2827519  -0.3809094   0.2213539), wk =   0.0740741
        k(   27) = (   0.2827519  -0.3809094   0.3689232), wk =   0.0740741
        k(   28) = (   0.2827519  -0.1632469   0.0737846), wk =   0.0370370
        k(   29) = (   0.2827519  -0.1632469   0.2213539), wk =   0.0370370
        k(   30) = (   0.2827519  -0.1632469   0.3689232), wk =   0.0370370
        k(   31) = (   0.4712532   0.8162344   0.0737846), wk =   0.0370370
        k(   32) = (   0.4712532   0.8162344   0.2213539), wk =   0.0370370
        k(   33) = (   0.4712532   0.8162344   0.3689232), wk =   0.0370370
        k(   34) = (   0.4712532  -0.2720781   0.0737846), wk =   0.0370370
        k(   35) = (   0.4712532  -0.2720781   0.2213539), wk =   0.0370370
        k(   36) = (   0.4712532  -0.2720781   0.3689232), wk =   0.0370370
     extrapolated charge   23.95778, renormalised to   24.00000

     total cpu time spent up to now is     1587.5 secs

     per-process dynamical memory:    52.7 Mb

     Self-consistent Calculation

     iteration #  1     ecut=   120.00 Ry     beta=0.30
     Davidson diagonalization with overlap
     ethr =  1.00E-06,  avg # of iterations =  2.9

     total cpu time spent up to now is     1615.3 secs

     total energy              =    -151.31242471 Ry
     Harris-Foulkes estimate   =    -151.34322087 Ry
     estimated scf accuracy    <       0.00005595 Ry

     iteration #  2     ecut=   120.00 Ry     beta=0.30
     Davidson diagonalization with overlap
     ethr =  2.33E-07,  avg # of iterations =  3.2

     total cpu time spent up to now is     1645.6 secs

     total energy              =    -151.31249921 Ry
     Harris-Foulkes estimate   =    -151.31249006 Ry
     estimated scf accuracy    <       0.00000244 Ry

     iteration #  3     ecut=   120.00 Ry     beta=0.30
     Davidson diagonalization with overlap
     ethr =  1.02E-08,  avg # of iterations =  1.9

     total cpu time spent up to now is     1665.8 secs

     total energy              =    -151.31251065 Ry
     Harris-Foulkes estimate   =    -151.31249935 Ry
     estimated scf accuracy    <       0.00000162 Ry

     iteration #  4     ecut=   120.00 Ry     beta=0.30
     Davidson diagonalization with overlap
     ethr =  6.73E-09,  avg # of iterations =  2.5

     total cpu time spent up to now is     1691.9 secs

     total energy              =    -151.31251085 Ry
     Harris-Foulkes estimate   =    -151.31251089 Ry
     estimated scf accuracy    <       0.00000004 Ry

     iteration #  5     ecut=   120.00 Ry     beta=0.30
     Davidson diagonalization with overlap
     ethr =  1.60E-10,  avg # of iterations =  3.5

     total cpu time spent up to now is     1716.8 secs

     total energy              =    -151.31251085 Ry
     Harris-Foulkes estimate   =    -151.31251087 Ry
     estimated scf accuracy    <       0.00000001 Ry

     iteration #  6     ecut=   120.00 Ry     beta=0.30
     Davidson diagonalization with overlap
     ethr =  4.59E-11,  avg # of iterations =  2.9

     total cpu time spent up to now is     1745.4 secs

     End of self-consistent calculation

          k = 0.0943 0.1632 0.0738 (  8810 PWs)   bands (ev):

   -28.3401 -27.8649  -9.5884  -8.6451  -8.6100  -8.2826  -8.0894  -7.9669
     4.6018   7.2055  10.8857  11.0556

          k = 0.0943 0.1632 0.2214 (  8821 PWs)   bands (ev):

   -28.2779 -27.9300  -9.4736  -8.5932  -8.5300  -8.4891  -8.1589  -8.0166
     5.1069   7.2299  10.5852  11.2115

          k = 0.0943 0.1632 0.3689 (  8822 PWs)   bands (ev):

   -28.1691 -28.0417  -9.2389  -8.9090  -8.4120  -8.3456  -8.2779  -8.1550
     5.9448   6.8017  10.7396  11.1736

          k = 0.0943 0.3809 0.0738 (  8795 PWs)   bands (ev):

   -28.2318 -27.8960  -9.3736  -8.9705  -8.7709  -8.5866  -8.1421  -8.0954
     5.9806   7.7910   9.1720  10.0175

          k = 0.0943 0.3809 0.2214 (  8792 PWs)   bands (ev):

   -28.1866 -27.9408  -9.5009  -9.0329  -8.6616  -8.5605  -8.1921  -8.0266
     6.3560   8.0002   9.3958   9.5950

          k = 0.0943 0.3809 0.3689 (  8800 PWs)   bands (ev):

   -28.1085 -28.0185  -9.4900  -9.3122  -8.5275  -8.3522  -8.2635  -8.0649
     7.0084   7.7340   9.5022   9.6612

          k = 0.0943 0.5986 0.0738 (  8793 PWs)   bands (ev):

   -28.1204 -27.9503  -9.3812  -8.9694  -8.8468  -8.7931  -8.3623  -8.1055
     7.2862   7.9288   8.2874   9.4792

          k = 0.0943 0.5986 0.2214 (  8782 PWs)   bands (ev):

   -28.0963 -27.9717  -9.6003  -9.2504  -8.7896  -8.4963  -8.2263  -8.1085
     7.4977   8.1714   8.6138   9.2682

          k = 0.0943 0.5986 0.3689 (  8761 PWs)   bands (ev):

   -28.0554 -28.0097  -9.6723  -9.5472  -8.6120  -8.4054  -8.1970  -8.0509
     7.8370   8.1714   9.0642   9.2058

          k = 0.0943-0.4897 0.0738 (  8788 PWs)   bands (ev):

   -28.1680 -27.9237  -9.3312  -9.0450  -8.8047  -8.7244  -8.2645  -8.1015
     6.7376   7.9580   8.5739   9.6654

          k = 0.0943-0.4897 0.2214 (  8788 PWs)   bands (ev):

   -28.1344 -27.9554  -9.5531  -9.1826  -8.7425  -8.5309  -8.2113  -8.0715
     7.0273   8.2452   8.8213   9.3296

          k = 0.0943-0.4897 0.3689 (  8779 PWs)   bands (ev):

   -28.0767 -28.0112  -9.6048  -9.4658  -8.5812  -8.3859  -8.2230  -8.0520
     7.5311   8.1031   9.1505   9.2886

          k = 0.0943-0.2721 0.0738 (  8796 PWs)   bands (ev):

   -28.2929 -27.8763  -9.4893  -8.7874  -8.7024  -8.4343  -8.0926  -8.0351
     5.2147   7.5000  10.0277  10.4654

          k = 0.0943-0.2721 0.2214 (  8800 PWs)   bands (ev):

   -28.2378 -27.9328  -9.4756  -8.8164  -8.5704  -8.5592  -8.1736  -8.0025
     5.6635   7.6017  10.0487  10.2339

          k = 0.0943-0.2721 0.3689 (  8820 PWs)   bands (ev):

   -28.1418 -28.0302  -9.3572  -9.1121  -8.4652  -8.3166  -8.3040  -8.0989
     6.4254   7.2336  10.0682  10.3323

          k = 0.0943-0.0544 0.0738 (  8823 PWs)   bands (ev):

   -28.3657 -27.8598  -9.6428  -8.5745  -8.5510  -8.1704  -8.0899  -7.9400
     4.2620   7.0242  11.1408  11.9656

          k = 0.0943-0.0544 0.2214 (  8809 PWs)   bands (ev):

   -28.2998 -27.9295  -9.4783  -8.4996  -8.4901  -8.3800  -8.1526  -8.0620
     4.7988   7.0119  10.9601  12.0924

          k = 0.0943-0.0544 0.3689 (  8822 PWs)   bands (ev):

   -28.1843 -28.0488  -9.1681  -8.7665  -8.3840  -8.3642  -8.2604  -8.2102
     5.6771   6.5574  11.2711  11.9152

          k = 0.2828 0.4897 0.0738 (  8799 PWs)   bands (ev):

   -28.1220 -27.9488  -9.1991  -9.1789  -8.7888  -8.7691  -8.3463  -8.1939
     7.2295   8.1716   8.3129   9.4233

          k = 0.2828 0.4897 0.2214 (  8784 PWs)   bands (ev):

   -28.0974 -27.9706  -9.4614  -9.2850  -8.9208  -8.4140  -8.3150  -8.0952
     7.4921   8.5399   8.6564   9.0917

          k = 0.2828 0.4897 0.3689 (  8784 PWs)   bands (ev):

   -28.0558 -28.0094  -9.5763  -9.4981  -8.7699  -8.5392  -8.1178  -8.0054
     7.9483   8.5051   9.0510   9.0755

          k = 0.2828 0.7074 0.0738 (  8807 PWs)   bands (ev):

   -28.0722 -27.9833  -9.2706  -9.0723  -8.8981  -8.6966  -8.4584  -8.2227
     7.6088   8.1578   8.2437   9.2735

          k = 0.2828 0.7074 0.2214 (  8800 PWs)   bands (ev):

   -28.0586 -27.9935  -9.4424  -9.3020  -9.0459  -8.3705  -8.3190  -8.1501
     7.8140   8.5298   8.6235   9.0631

          k = 0.2828 0.7074 0.3689 (  8778 PWs)   bands (ev):

   -28.0362 -28.0124  -9.5841  -9.5319  -8.8523  -8.5976  -8.0697  -8.0057
     8.1770   8.6014   9.0794   9.0887

          k = 0.2828-0.3809 0.0738 (  8789 PWs)   bands (ev):

   -28.1793 -27.9179  -9.2816  -9.0773  -8.8349  -8.6559  -8.2343  -8.1439
     6.6130   8.0047   8.6742   9.6943

          k = 0.2828-0.3809 0.2214 (  8785 PWs)   bands (ev):

   -28.1435 -27.9521  -9.4933  -9.1805  -8.7767  -8.4963  -8.2555  -8.0492
     6.9345   8.3065   8.9577   9.2864

          k = 0.2828-0.3809 0.3689 (  8777 PWs)   bands (ev):

   -28.0820 -28.0119  -9.5483  -9.4221  -8.6455  -8.4454  -8.1880  -8.0259
     7.4969   8.1491   9.2003   9.2975

          k = 0.2828-0.1632 0.0738 (  8796 PWs)   bands (ev):

   -28.2715 -27.8826  -9.4478  -8.8832  -8.6768  -8.5286  -8.0779  -8.0729
     5.4843   7.6050   9.6842  10.3013

          k = 0.2828-0.1632 0.2214 (  8799 PWs)   bands (ev):

   -28.2198 -27.9351  -9.4888  -8.8922  -8.5993  -8.5783  -8.1610  -8.0159
     5.9057   7.7432   9.8293   9.9359

          k = 0.2828-0.1632 0.3689 (  8812 PWs)   bands (ev):

   -28.1299 -28.0257  -9.4144  -9.1938  -8.4631  -8.3122  -8.3028  -8.0971
     6.6283   7.4079   9.8385  10.0557

          k = 0.4713 0.8162 0.0738 (  8798 PWs)   bands (ev):

   -28.0927 -27.9684  -9.3397  -8.9938  -8.8919  -8.7483  -8.4174  -8.1667
     7.5329   8.0175   8.2362   9.3556

          k = 0.4713 0.8162 0.2214 (  8787 PWs)   bands (ev):

   -28.0745 -27.9834  -9.5409  -9.2667  -8.9365  -8.3957  -8.3073  -8.1222
     7.7266   8.3093   8.6050   9.1702

          k = 0.4713 0.8162 0.3689 (  8761 PWs)   bands (ev):

   -28.0440 -28.0106  -9.6377  -9.5424  -8.7477  -8.5141  -8.1209  -8.0185
     8.0504   8.3794   9.0667   9.1445

          k = 0.4713-0.2721 0.0738 (  8798 PWs)   bands (ev):

   -28.1472 -27.9348  -9.3757  -8.9984  -8.8032  -8.7870  -8.3090  -8.0801
     6.9773   7.9182   8.4204   9.5934

          k = 0.4713-0.2721 0.2214 (  8788 PWs)   bands (ev):

   -28.1176 -27.9620  -9.6015  -9.2176  -8.6967  -8.5708  -8.1796  -8.1033
     7.2233   8.1755   8.6876   9.3264

          k = 0.4713-0.2721 0.3689 (  8773 PWs)   bands (ev):

   -28.0671 -28.0101  -9.6593  -9.5196  -8.5374  -8.3482  -8.2485  -8.0736
     7.6394   8.0859   9.0957   9.2561

!    total energy              =    -151.31251089 Ry
     Harris-Foulkes estimate   =    -151.31251086 Ry
     estimated scf accuracy    <          3.9E-09 Ry

     The total energy is the sum of the following terms:

     one-electron contribution =     -28.43502893 Ry
     hartree contribution      =      24.46060269 Ry
     xc contribution           =     -24.26869923 Ry
     ewald contribution        =    -123.06938543 Ry

     convergence has been achieved in   6 iterations

     Forces acting on atoms (Ry/au):

     atom    1 type  2   force =     0.00000000    0.00000000   -0.00000000
     atom    2 type  2   force =    -0.00000000   -0.00000000    0.00000000
     atom    3 type  1   force =    -0.00000000   -0.00000000    0.00000000
     atom    4 type  1   force =     0.00000000    0.00000000   -0.00000000
     atom    5 type  1   force =    -0.00000000   -0.00000000   -0.00000000
     atom    6 type  1   force =     0.00000000    0.00000000   -0.00000000

     Total force =     0.000000     Total SCF correction =     0.000000


     entering subroutine stress ...

          total   stress  (Ry/bohr**3)                   (kbar)     P=  599.76
   0.00408364   0.00000000   0.00000000        600.72      0.00      0.00
   0.00000000   0.00408364  -0.00000000          0.00    600.72     -0.00
   0.00000000  -0.00000000   0.00406392          0.00     -0.00    597.82


     number of scf cycles    =   5
     number of bfgs steps    =   4

     enthalpy old            =    -150.1715715194 Ry
     enthalpy new            =    -150.1715819126 Ry

     CASE: enthalpy_new < enthalpy_old

     new trust radius        =       0.0016046742 bohr
     new conv_thr            =       0.0000000100 Ry

     new unit-cell volume =    279.64951 a.u.^3 (    41.43978 Ang^3 )

CELL_PARAMETERS (alat=  7.15200000)
   0.884256451  -0.000000000  -0.000000000
  -0.442128226   0.765788550  -0.000000000
   0.000000000   0.000000000   1.128871323

ATOMIC_POSITIONS (crystal)
Ca       0.333333333   0.666666667   0.250000000
Ca       0.666666667   0.333333333   0.750000000
H        0.333333333   0.666666667   0.750000000
H        0.666666667   0.333333333   0.250000000
H       -0.000000000  -0.000000000  -0.000000000
H        0.000000000   0.000000000   0.500000000



     Writing output data file CaH2_18GPa-blyp-0600.save
     NEW-OLD atomic charge density approx. for the potential
     NEW k-points:
        k(    1) = (   0.0942411   0.1632304   0.0738200), wk =   0.0370370
        k(    2) = (   0.0942411   0.1632304   0.2214601), wk =   0.0370370
        k(    3) = (   0.0942411   0.1632304   0.3691002), wk =   0.0370370
        k(    4) = (   0.0942411   0.3808710   0.0738200), wk =   0.0740741
        k(    5) = (   0.0942411   0.3808710   0.2214601), wk =   0.0740741
        k(    6) = (   0.0942411   0.3808710   0.3691002), wk =   0.0740741
[...]
     --------------------
     sticks:   dense  smooth     PW     G-vecs:    dense   smooth      PW
     Sum        1333    1333    379                49581    49581    7825



     bravais-lattice index     =            4
     lattice parameter (alat)  =       7.1520  a.u.
     unit-cell volume          =     279.6436 (a.u.)^3
     number of atoms/cell      =            6
     number of atomic types    =            2
     number of electrons       =        24.00
     number of Kohn-Sham states=           12
     kinetic-energy cutoff     =     120.0000  Ry
     charge density cutoff     =     480.0000  Ry
     convergence threshold     =      1.0E-08
     mixing beta               =       0.3000
     number of iterations used =           16  local-TF  mixing
     Exchange-correlation      = BLYP ( 1 3 1 3 0)
     EXX-fraction              =        0.00

     celldm(1)=   7.152000  celldm(2)=   0.000000  celldm(3)=   1.250400
     celldm(4)=   0.000000  celldm(5)=   0.000000  celldm(6)=   0.000000

     crystal axes: (cart. coord. in units of alat)
               a(1) = (   0.884362  -0.000000  -0.000000 )  
               a(2) = (  -0.442181   0.765880  -0.000000 )  
               a(3) = (   0.000000  -0.000000   1.128578 )  

     reciprocal axes: (cart. coord. in units 2 pi/alat)
               b(1) = (  1.130759  0.652844 -0.000000 )  
               b(2) = (  0.000000  1.305688  0.000000 )  
               b(3) = (  0.000000  0.000000  0.886071 )  


     PseudoPot. # 1 for H  read from file:
     /home/ilia/espresso/pseudo/H.blyp-vbc.UPF
     MD5 check sum: 64d25ad537c4b939b17faee1147b797b
     Pseudo is Norm-conserving, Zval =  1.0
     Generated by new atomic code, or converted to UPF format
     Using radial grid of  243 points,  0 beta functions with: 

     PseudoPot. # 2 for Ca read from file:
     /home/ilia/espresso/pseudo/Ca.blyp-sp-hgh.UPF
     MD5 check sum: 357a6b692114ea82b84239caae8ecfc0
     Pseudo is Norm-conserving, Zval = 10.0
     Generated in analytical, separable form
     Using radial grid of 1169 points,  5 beta functions with: 
                l(1) =   0
                l(2) =   0
                l(3) =   1
                l(4) =   1
                l(5) =   2

     atomic species   valence    mass     pseudopotential
        H              1.00     1.00700     H ( 1.00)
        Ca            10.00    40.07800     Ca( 1.00)

     24 Sym. Ops., with inversion, found (12 have fractional translation)



   Cartesian axes

     site n.     atom                  positions (alat units)
         1           Ca  tau(   1) = (   0.0000000   0.5105866   0.2821446  )
         2           Ca  tau(   2) = (   0.4421810   0.2552933   0.8464337  )
         3           H   tau(   3) = (   0.0000000   0.5105866   0.8464337  )
         4           H   tau(   4) = (   0.4421810   0.2552933   0.2821446  )
         5           H   tau(   5) = (  -0.0000000  -0.0000000  -0.0000000  )
         6           H   tau(   6) = (   0.0000000   0.0000000   0.5642891  )

     number of k points=    36
                       cart. coord. in units 2pi/alat
        k(    1) = (   0.0942299   0.1632110   0.0738392), wk =   0.0370370
        k(    2) = (   0.0942299   0.1632110   0.2215177), wk =   0.0370370
        k(    3) = (   0.0942299   0.1632110   0.3691961), wk =   0.0370370
        k(    4) = (   0.0942299   0.3808256   0.0738392), wk =   0.0740741
        k(    5) = (   0.0942299   0.3808256   0.2215177), wk =   0.0740741
        k(    6) = (   0.0942299   0.3808256   0.3691961), wk =   0.0740741
        k(    7) = (   0.0942299   0.5984402   0.0738392), wk =   0.0740741
        k(    8) = (   0.0942299   0.5984402   0.2215177), wk =   0.0740741
        k(    9) = (   0.0942299   0.5984402   0.3691961), wk =   0.0740741
        k(   10) = (   0.0942299  -0.4896329   0.0738392), wk =   0.0740741
        k(   11) = (   0.0942299  -0.4896329   0.2215177), wk =   0.0740741
        k(   12) = (   0.0942299  -0.4896329   0.3691961), wk =   0.0740741
        k(   13) = (   0.0942299  -0.2720183   0.0738392), wk =   0.0740741
        k(   14) = (   0.0942299  -0.2720183   0.2215177), wk =   0.0740741
        k(   15) = (   0.0942299  -0.2720183   0.3691961), wk =   0.0740741
        k(   16) = (   0.0942299  -0.0544037   0.0738392), wk =   0.0370370
        k(   17) = (   0.0942299  -0.0544037   0.2215177), wk =   0.0370370
        k(   18) = (   0.0942299  -0.0544037   0.3691961), wk =   0.0370370
        k(   19) = (   0.2826897   0.4896329   0.0738392), wk =   0.0370370
        k(   20) = (   0.2826897   0.4896329   0.2215177), wk =   0.0370370
        k(   21) = (   0.2826897   0.4896329   0.3691961), wk =   0.0370370
        k(   22) = (   0.2826897   0.7072476   0.0738392), wk =   0.0740741
        k(   23) = (   0.2826897   0.7072476   0.2215177), wk =   0.0740741
        k(   24) = (   0.2826897   0.7072476   0.3691961), wk =   0.0740741
        k(   25) = (   0.2826897  -0.3808256   0.0738392), wk =   0.0740741
        k(   26) = (   0.2826897  -0.3808256   0.2215177), wk =   0.0740741
        k(   27) = (   0.2826897  -0.3808256   0.3691961), wk =   0.0740741
        k(   28) = (   0.2826897  -0.1632110   0.0738392), wk =   0.0370370
        k(   29) = (   0.2826897  -0.1632110   0.2215177), wk =   0.0370370
        k(   30) = (   0.2826897  -0.1632110   0.3691961), wk =   0.0370370
        k(   31) = (   0.4711495   0.8160549   0.0738392), wk =   0.0370370
        k(   32) = (   0.4711495   0.8160549   0.2215177), wk =   0.0370370
        k(   33) = (   0.4711495   0.8160549   0.3691961), wk =   0.0370370
        k(   34) = (   0.4711495  -0.2720183   0.0738392), wk =   0.0370370
        k(   35) = (   0.4711495  -0.2720183   0.2215177), wk =   0.0370370
        k(   36) = (   0.4711495  -0.2720183   0.3691961), wk =   0.0370370

     Dense  grid:    49581 G-vectors     FFT dimensions: (  45,  45,  60)

     Largest allocated arrays     est. size (Mb)     dimensions
        Kohn-Sham Wavefunctions         1.14 Mb     (   6228,   12)
        NL pseudopotentials             2.47 Mb     (   6228,   26)
        Each V/rho on FFT grid          1.85 Mb     ( 121500)
        Each G-vector array             0.38 Mb     (  49581)
        G-vector shells                 0.02 Mb     (   2247)
     Largest temporary arrays     est. size (Mb)     dimensions
        Auxiliary wavefunctions         4.56 Mb     (   6228,   48)
        Each subspace H/S matrix        0.04 Mb     (  48,  48)
        Each <psi_i|beta_j> matrix      0.00 Mb     (     26,   12)
        Arrays for rho mixing          29.66 Mb     ( 121500,  16)

     Initial potential from superposition of free atoms

     starting charge   23.98928, renormalised to   24.00000
     Starting wfc are   30 randomized atomic wfcs

     Writing output data file CaH2_18GPa-blyp-0600.save

     total cpu time spent up to now is     2317.3 secs

     per-process dynamical memory:    38.6 Mb

     Self-consistent Calculation

     iteration #  1     ecut=   120.00 Ry     beta=0.30
     Davidson diagonalization with overlap
     ethr =  1.00E-06,  avg # of iterations =  8.2

     total cpu time spent up to now is     2369.0 secs

     total energy              =    -151.35176166 Ry
     Harris-Foulkes estimate   =    -151.38573310 Ry
     estimated scf accuracy    <       0.28852309 Ry

     iteration #  2     ecut=   120.00 Ry     beta=0.30
     Davidson diagonalization with overlap
     ethr =  1.20E-03,  avg # of iterations =  1.0

     total cpu time spent up to now is     2385.9 secs

     total energy              =    -151.28392920 Ry
     Harris-Foulkes estimate   =    -151.35302449 Ry
     estimated scf accuracy    <       0.16743103 Ry

     iteration #  3     ecut=   120.00 Ry     beta=0.30
     Davidson diagonalization with overlap
     ethr =  6.98E-04,  avg # of iterations =  3.0

     total cpu time spent up to now is     2406.5 secs

     total energy              =    -151.30778640 Ry
     Harris-Foulkes estimate   =    -151.30850587 Ry
     estimated scf accuracy    <       0.00304633 Ry

     iteration #  4     ecut=   120.00 Ry     beta=0.30
     Davidson diagonalization with overlap
     ethr =  1.27E-05,  avg # of iterations =  3.9

     total cpu time spent up to now is     2428.3 secs

     total energy              =    -151.30920686 Ry
     Harris-Foulkes estimate   =    -151.30898226 Ry
     estimated scf accuracy    <       0.00068532 Ry

     iteration #  5     ecut=   120.00 Ry     beta=0.30
     Davidson diagonalization with overlap
     ethr =  2.86E-06,  avg # of iterations =  2.8

     total cpu time spent up to now is     2448.4 secs

     total energy              =    -151.30929001 Ry
     Harris-Foulkes estimate   =    -151.30935600 Ry
     estimated scf accuracy    <       0.00015344 Ry

     iteration #  6     ecut=   120.00 Ry     beta=0.30
     Davidson diagonalization with overlap
     ethr =  6.39E-07,  avg # of iterations =  2.7

     total cpu time spent up to now is     2468.1 secs

     total energy              =    -151.30931722 Ry
     Harris-Foulkes estimate   =    -151.30931661 Ry
     estimated scf accuracy    <       0.00000298 Ry

     iteration #  7     ecut=   120.00 Ry     beta=0.30
     Davidson diagonalization with overlap
     ethr =  1.24E-08,  avg # of iterations =  3.8

     total cpu time spent up to now is     2498.1 secs

     total energy              =    -151.30931962 Ry
     Harris-Foulkes estimate   =    -151.30931947 Ry
     estimated scf accuracy    <       0.00000143 Ry

     iteration #  8     ecut=   120.00 Ry     beta=0.30
     Davidson diagonalization with overlap
     ethr =  5.97E-09,  avg # of iterations =  1.0

     total cpu time spent up to now is     2515.1 secs

     total energy              =    -151.30931945 Ry
     Harris-Foulkes estimate   =    -151.30931964 Ry
     estimated scf accuracy    <       0.00000081 Ry

     iteration #  9     ecut=   120.00 Ry     beta=0.30
     Davidson diagonalization with overlap
     ethr =  3.37E-09,  avg # of iterations =  3.0

     total cpu time spent up to now is     2535.3 secs

     End of self-consistent calculation

          k = 0.0942 0.1632 0.0738 (  6180 PWs)   bands (ev):

   -28.3304 -27.8532  -9.5856  -8.6431  -8.6083  -8.2791  -8.0859  -7.9625
     4.6062   7.2074  10.8980  11.0558

          k = 0.0942 0.1632 0.2215 (  6198 PWs)   bands (ev):

   -28.2680 -27.9187  -9.4711  -8.5906  -8.5275  -8.4867  -8.1556  -8.0125
     5.1121   7.2345  10.5939  11.2134

          k = 0.0942 0.1632 0.3692 (  6194 PWs)   bands (ev):

   -28.1587 -28.0308  -9.2366  -8.9065  -8.4097  -8.3425  -8.2751  -8.1512
     5.9513   6.8086  10.7457  11.1781

          k = 0.0942 0.3808 0.0738 (  6205 PWs)   bands (ev):

   -28.2220 -27.8849  -9.3710  -8.9678  -8.7686  -8.5833  -8.1379  -8.0915
     5.9840   7.7921   9.1730  10.0285

          k = 0.0942 0.3808 0.2215 (  6199 PWs)   bands (ev):

   -28.1767 -27.9298  -9.4990  -9.0302  -8.6595  -8.5569  -8.1886  -8.0219
     6.3602   8.0038   9.3991   9.6023

          k = 0.0942 0.3808 0.3692 (  6222 PWs)   bands (ev):

   -28.0984 -28.0080  -9.4883  -9.3102  -8.5251  -8.3491  -8.2592  -8.0602
     7.0137   7.7401   9.5074   9.6659

          k = 0.0942 0.5984 0.0738 (  6212 PWs)   bands (ev):

   -28.1103 -27.9397  -9.3785  -8.9665  -8.8431  -8.7910  -8.3581  -8.1014
     7.2880   7.9310   8.2885   9.4896

          k = 0.0942 0.5984 0.2215 (  6222 PWs)   bands (ev):

   -28.0862 -27.9611  -9.5983  -9.2478  -8.7875  -8.4923  -8.2224  -8.1038
     7.5004   8.1758   8.6165   9.2758

          k = 0.0942 0.5984 0.3692 (  6210 PWs)   bands (ev):

   -28.0451 -27.9993  -9.6706  -9.5454  -8.6095  -8.4023  -8.1923  -8.0459
     7.8413   8.1773   9.0691   9.2114

          k = 0.0942-0.4896 0.0738 (  6210 PWs)   bands (ev):

   -28.1581 -27.9128  -9.3287  -9.0420  -8.8020  -8.7214  -8.2604  -8.0975
     6.7404   7.9592   8.5752   9.6760

          k = 0.0942-0.4896 0.2215 (  6217 PWs)   bands (ev):

   -28.1244 -27.9447  -9.5512  -9.1799  -8.7404  -8.5269  -8.2076  -8.0668
     7.0308   8.2488   8.8243   9.3372

          k = 0.0942-0.4896 0.3692 (  6219 PWs)   bands (ev):

   -28.0665 -28.0007  -9.6032  -9.4639  -8.5787  -8.3828  -8.2184  -8.0471
     7.5358   8.1090   9.1554   9.2939

          k = 0.0942-0.2720 0.0738 (  6184 PWs)   bands (ev):

   -28.2832 -27.8649  -9.4866  -8.7851  -8.7004  -8.4309  -8.0888  -8.0308
     5.2187   7.5014  10.0283  10.4770

          k = 0.0942-0.2720 0.2215 (  6201 PWs)   bands (ev):

   -28.2279 -27.9217  -9.4735  -8.8137  -8.5684  -8.5560  -8.1702  -7.9981
     5.6682   7.6058  10.0568  10.2361

          k = 0.0942-0.2720 0.3692 (  6214 PWs)   bands (ev):

   -28.1316 -28.0195  -9.3553  -9.1099  -8.4628  -8.3131  -8.3007  -8.0946
     6.4313   7.2400  10.0737  10.3368

          k = 0.0942-0.0544 0.0738 (  6161 PWs)   bands (ev):

   -28.3559 -27.8480  -9.6400  -8.5727  -8.5493  -8.1670  -8.0865  -7.9356
     4.2667   7.0264  11.1536  11.9653

          k = 0.0942-0.0544 0.2215 (  6182 PWs)   bands (ev):

   -28.2899 -27.9180  -9.4756  -8.4974  -8.4882  -8.3767  -8.1494  -8.0581
     4.8043   7.0167  10.9696  12.0942

          k = 0.0942-0.0544 0.3692 (  6182 PWs)   bands (ev):

   -28.1739 -28.0378  -9.1654  -8.7636  -8.3817  -8.3616  -8.2577  -8.2069
     5.6839   6.5645  11.2780  11.9204

          k = 0.2827 0.4896 0.0738 (  6228 PWs)   bands (ev):

   -28.1120 -27.9383  -9.1970  -9.1763  -8.7852  -8.7661  -8.3423  -8.1895
     7.2317   8.1725   8.3143   9.4334

          k = 0.2827 0.4896 0.2215 (  6215 PWs)   bands (ev):

   -28.0874 -27.9600  -9.4595  -9.2826  -8.9187  -8.4096  -8.3110  -8.0905
     7.4949   8.5426   8.6594   9.1000

          k = 0.2827 0.4896 0.3692 (  6206 PWs)   bands (ev):

   -28.0455 -27.9989  -9.5748  -9.4964  -8.7673  -8.5359  -8.1130  -8.0004
     7.9524   8.5111   9.0560   9.0806

          k = 0.2827 0.7072 0.0738 (  6211 PWs)   bands (ev):

   -28.0619 -27.9728  -9.2684  -9.0697  -8.8950  -8.6930  -8.4544  -8.2181
     7.6102   8.1595   8.2447   9.2833

          k = 0.2827 0.7072 0.2215 (  6212 PWs)   bands (ev):

   -28.0483 -27.9830  -9.4405  -9.2998  -9.0438  -8.3662  -8.3146  -8.1454
     7.8162   8.5333   8.6262   9.0712

          k = 0.2827 0.7072 0.3692 (  6212 PWs)   bands (ev):

   -28.0259 -28.0020  -9.5827  -9.5303  -8.8496  -8.5941  -8.0647  -8.0006
     8.1808   8.6074   9.0846   9.0936

          k = 0.2827-0.3808 0.0738 (  6215 PWs)   bands (ev):

   -28.1695 -27.9071  -9.2791  -9.0748  -8.8318  -8.6529  -8.2302  -8.1398
     6.6158   8.0056   8.6754   9.7048

          k = 0.2827-0.3808 0.2215 (  6216 PWs)   bands (ev):

   -28.1336 -27.9413  -9.4914  -9.1780  -8.7746  -8.4922  -8.2517  -8.0445
     6.9381   8.3096   8.9605   9.2943

          k = 0.2827-0.3808 0.3692 (  6208 PWs)   bands (ev):

   -28.0718 -28.0014  -9.5468  -9.4202  -8.6430  -8.4421  -8.1834  -8.0210
     7.5017   8.1550   9.2054   9.3024

          k = 0.2827-0.1632 0.0738 (  6210 PWs)   bands (ev):

   -28.2619 -27.8713  -9.4451  -8.8806  -8.6753  -8.5249  -8.0742  -8.0686
     5.4880   7.6063   9.6850  10.3128

          k = 0.2827-0.1632 0.2215 (  6208 PWs)   bands (ev):

   -28.2099 -27.9240  -9.4868  -8.8894  -8.5975  -8.5748  -8.1576  -8.0113
     5.9103   7.7471   9.8357   9.9400

          k = 0.2827-0.1632 0.3692 (  6204 PWs)   bands (ev):

   -28.1196 -28.0150  -9.4126  -9.1917  -8.4608  -8.3081  -8.2999  -8.0926
     6.6340   7.4142   9.8439  10.0602

          k = 0.4711 0.8161 0.0738 (  6214 PWs)   bands (ev):

   -28.0825 -27.9579  -9.3372  -8.9916  -8.8883  -8.7451  -8.4133  -8.1624
     7.5342   8.0198   8.2372   9.3656

          k = 0.4711 0.8161 0.2215 (  6215 PWs)   bands (ev):

   -28.0643 -27.9729  -9.5389  -9.2643  -8.9345  -8.3915  -8.3033  -8.1174
     7.7289   8.3136   8.6076   9.1779

          k = 0.4711 0.8161 0.3692 (  6223 PWs)   bands (ev):

   -28.0337 -28.0004  -9.6361  -9.5407  -8.7451  -8.5107  -8.1161  -8.0134
     8.0544   8.3853   9.0716   9.1500

          k = 0.4711-0.2720 0.0738 (  6205 PWs)   bands (ev):

   -28.1372 -27.9240  -9.3731  -8.9951  -8.7992  -8.7855  -8.3049  -8.0761
     6.9797   7.9198   8.4218   9.6041

          k = 0.4711-0.2720 0.2215 (  6206 PWs)   bands (ev):

   -28.1076 -27.9513  -9.5996  -9.2149  -8.6949  -8.5667  -8.1759  -8.0984
     7.2266   8.1796   8.6905   9.3341

          k = 0.4711-0.2720 0.3692 (  6219 PWs)   bands (ev):

   -28.0569 -27.9997  -9.6576  -9.5176  -8.5350  -8.3452  -8.2438  -8.0685
     7.6439   8.0918   9.1005   9.2617

!    total energy              =    -151.30931958 Ry
     Harris-Foulkes estimate   =    -151.30931958 Ry
     estimated scf accuracy    <          6.3E-09 Ry

     The total energy is the sum of the following terms:

     one-electron contribution =     -28.41741757 Ry
     hartree contribution      =      24.45594436 Ry
     xc contribution           =     -24.26842565 Ry
     ewald contribution        =    -123.07942072 Ry

     convergence has been achieved in   9 iterations

     Forces acting on atoms (Ry/au):

     atom    1 type  2   force =     0.00000000    0.00000000   -0.00000000
     atom    2 type  2   force =    -0.00000000   -0.00000000    0.00000000
     atom    3 type  1   force =     0.00000000    0.00000000    0.00000000
     atom    4 type  1   force =     0.00000000    0.00000000    0.00000000
     atom    5 type  1   force =     0.00000000   -0.00000000   -0.00000000
     atom    6 type  1   force =    -0.00000000   -0.00000000   -0.00000000

     Total force =     0.000000     Total SCF correction =     0.000000


     entering subroutine stress ...

          total   stress  (Ry/bohr**3)                   (kbar)     P=  594.10
   0.00403833   0.00000000  -0.00000000        594.06      0.00     -0.00
   0.00000000   0.00403833   0.00000000          0.00    594.06      0.00
  -0.00000000   0.00000000   0.00403919         -0.00      0.00    594.19


     Writing output data file CaH2_18GPa-blyp-0600.save

     init_run     :     88.73s CPU     89.98s WALL (       2 calls)
     electrons    :   1588.61s CPU   1615.18s WALL (       8 calls)
     update_pot   :    316.67s CPU    318.80s WALL (       6 calls)
     forces       :    150.88s CPU    151.63s WALL (       8 calls)
     stress       :    372.37s CPU    374.41s WALL (       8 calls)

     Called by init_run:
     wfcinit      :     42.16s CPU     43.19s WALL (       2 calls)
     potinit      :     18.41s CPU     18.52s WALL (       2 calls)

     Called by electrons:
     c_bands      :   1371.33s CPU   1392.18s WALL (      59 calls)
     sum_band     :    186.07s CPU    190.19s WALL (      59 calls)
     v_of_rho     :     15.70s CPU     16.15s WALL (      64 calls)
     mix_rho      :     16.75s CPU     17.61s WALL (      59 calls)

     Called by c_bands:
     init_us_2    :     80.08s CPU     81.50s WALL (    4896 calls)
     cegterg      :   1297.05s CPU   1306.93s WALL (    2124 calls)

     Called by *egterg:
     h_psi        :   1008.73s CPU   1016.21s WALL (    9191 calls)
     g_psi        :      7.09s CPU      7.16s WALL (    6995 calls)
     cdiaghg      :      5.49s CPU      5.56s WALL (    8795 calls)

     Called by h_psi:
     add_vuspsi   :     90.69s CPU     91.32s WALL (    9191 calls)

     General routines
     calbec       :    102.78s CPU    103.44s WALL (    9767 calls)
     fft          :      4.81s CPU      4.85s WALL (     772 calls)
     ffts         :      5.98s CPU      6.00s WALL (     924 calls)
     fftw         :    709.09s CPU    713.91s WALL (  183476 calls)
     davcio       :      1.27s CPU     14.17s WALL (    7020 calls)


     PWSCF        : 41m58.43s CPU    42m31.30s WALL


   This run was terminated on:   4:16:33  15Jun2014            

=------------------------------------------------------------------------------=
   JOB DONE.
=------------------------------------------------------------------------------=
