
     Program PWSCF v.5.0.2 (svn rev. 9392) starts on 15Jun2014 at  1:19:18 

     This program is part of the open-source Quantum ESPRESSO suite
     for quantum simulation of materials; please cite
         "P. Giannozzi et al., J. Phys.:Condens. Matter 21 395502 (2009);
          URL http://www.quantum-espresso.org", 
     in publications or presentations arising from this work. More details at
     http://www.quantum-espresso.org/quote.php

     Serial version

     Current dimensions of program PWSCF are:
     Max number of different atomic species (ntypx) = 10
     Max number of k-points (npk) =  40000
     Max angular momentum in pseudopotentials (lmaxx) =  3
     Waiting for input...
     Reading input from standard input

     G-vector sticks info
     --------------------
     sticks:   dense  smooth     PW     G-vecs:    dense   smooth      PW
     Sum        1675    1675    499                70221    70221   10875



     bravais-lattice index     =            4
     lattice parameter (alat)  =       7.1520  a.u.
     unit-cell volume          =     396.1522 (a.u.)^3
     number of atoms/cell      =            6
     number of atomic types    =            2
     number of electrons       =        24.00
     number of Kohn-Sham states=           12
     kinetic-energy cutoff     =     120.0000  Ry
     charge density cutoff     =     480.0000  Ry
     convergence threshold     =      1.0E-06
     mixing beta               =       0.3000
     number of iterations used =           16  local-TF  mixing
     Exchange-correlation      = BLYP ( 1 3 1 3 0)
     EXX-fraction              =        0.00
     nstep                     =           50


     celldm(1)=   7.152000  celldm(2)=   0.000000  celldm(3)=   1.250400
     celldm(4)=   0.000000  celldm(5)=   0.000000  celldm(6)=   0.000000

     crystal axes: (cart. coord. in units of alat)
               a(1) = (   1.000000   0.000000   0.000000 )  
               a(2) = (  -0.500000   0.866025   0.000000 )  
               a(3) = (   0.000000   0.000000   1.250400 )  

     reciprocal axes: (cart. coord. in units 2 pi/alat)
               b(1) = (  1.000000  0.577350 -0.000000 )  
               b(2) = (  0.000000  1.154701  0.000000 )  
               b(3) = (  0.000000 -0.000000  0.799744 )  


     PseudoPot. # 1 for H  read from file:
     /home/ilia/espresso/pseudo/H.blyp-vbc.UPF
     MD5 check sum: 64d25ad537c4b939b17faee1147b797b
     Pseudo is Norm-conserving, Zval =  1.0
     Generated by new atomic code, or converted to UPF format
     Using radial grid of  243 points,  0 beta functions with: 

     PseudoPot. # 2 for Ca read from file:
     /home/ilia/espresso/pseudo/Ca.blyp-sp-hgh.UPF
     MD5 check sum: 357a6b692114ea82b84239caae8ecfc0
     Pseudo is Norm-conserving, Zval = 10.0
     Generated in analytical, separable form
     Using radial grid of 1169 points,  5 beta functions with: 
                l(1) =   0
                l(2) =   0
                l(3) =   1
                l(4) =   1
                l(5) =   2

     atomic species   valence    mass     pseudopotential
        H              1.00     1.00700     H ( 1.00)
        Ca            10.00    40.07800     Ca( 1.00)

     24 Sym. Ops., with inversion, found (12 have fractional translation)



   Cartesian axes

     site n.     atom                  positions (alat units)
         1           Ca  tau(   1) = (   0.0000000   0.5773503   0.3126000  )
         2           Ca  tau(   2) = (   0.5000000   0.2886751   0.9378000  )
         3           H   tau(   3) = (   0.0000000   0.5773503   0.9378000  )
         4           H   tau(   4) = (   0.5000000   0.2886751   0.3126000  )
         5           H   tau(   5) = (   0.0000000   0.0000000   0.0000000  )
         6           H   tau(   6) = (   0.0000000   0.0000000   0.6252000  )

     number of k points=    36
                       cart. coord. in units 2pi/alat
        k(    1) = (   0.0833333   0.1443376   0.0666453), wk =   0.0370370
        k(    2) = (   0.0833333   0.1443376   0.1999360), wk =   0.0370370
        k(    3) = (   0.0833333   0.1443376   0.3332267), wk =   0.0370370
        k(    4) = (   0.0833333   0.3367877   0.0666453), wk =   0.0740741
        k(    5) = (   0.0833333   0.3367877   0.1999360), wk =   0.0740741
        k(    6) = (   0.0833333   0.3367877   0.3332267), wk =   0.0740741
        k(    7) = (   0.0833333   0.5292377   0.0666453), wk =   0.0740741
        k(    8) = (   0.0833333   0.5292377   0.1999360), wk =   0.0740741
        k(    9) = (   0.0833333   0.5292377   0.3332267), wk =   0.0740741
        k(   10) = (   0.0833333  -0.4330127   0.0666453), wk =   0.0740741
        k(   11) = (   0.0833333  -0.4330127   0.1999360), wk =   0.0740741
        k(   12) = (   0.0833333  -0.4330127   0.3332267), wk =   0.0740741
        k(   13) = (   0.0833333  -0.2405626   0.0666453), wk =   0.0740741
        k(   14) = (   0.0833333  -0.2405626   0.1999360), wk =   0.0740741
        k(   15) = (   0.0833333  -0.2405626   0.3332267), wk =   0.0740741
        k(   16) = (   0.0833333  -0.0481125   0.0666453), wk =   0.0370370
        k(   17) = (   0.0833333  -0.0481125   0.1999360), wk =   0.0370370
        k(   18) = (   0.0833333  -0.0481125   0.3332267), wk =   0.0370370
        k(   19) = (   0.2500000   0.4330127   0.0666453), wk =   0.0370370
        k(   20) = (   0.2500000   0.4330127   0.1999360), wk =   0.0370370
        k(   21) = (   0.2500000   0.4330127   0.3332267), wk =   0.0370370
        k(   22) = (   0.2500000   0.6254628   0.0666453), wk =   0.0740741
        k(   23) = (   0.2500000   0.6254628   0.1999360), wk =   0.0740741
        k(   24) = (   0.2500000   0.6254628   0.3332267), wk =   0.0740741
        k(   25) = (   0.2500000  -0.3367877   0.0666453), wk =   0.0740741
        k(   26) = (   0.2500000  -0.3367877   0.1999360), wk =   0.0740741
        k(   27) = (   0.2500000  -0.3367877   0.3332267), wk =   0.0740741
        k(   28) = (   0.2500000  -0.1443376   0.0666453), wk =   0.0370370
        k(   29) = (   0.2500000  -0.1443376   0.1999360), wk =   0.0370370
        k(   30) = (   0.2500000  -0.1443376   0.3332267), wk =   0.0370370
        k(   31) = (   0.4166667   0.7216878   0.0666453), wk =   0.0370370
        k(   32) = (   0.4166667   0.7216878   0.1999360), wk =   0.0370370
        k(   33) = (   0.4166667   0.7216878   0.3332267), wk =   0.0370370
        k(   34) = (   0.4166667  -0.2405626   0.0666453), wk =   0.0370370
        k(   35) = (   0.4166667  -0.2405626   0.1999360), wk =   0.0370370
        k(   36) = (   0.4166667  -0.2405626   0.3332267), wk =   0.0370370

     Dense  grid:    70221 G-vectors     FFT dimensions: (  50,  50,  64)

     Largest allocated arrays     est. size (Mb)     dimensions
        Kohn-Sham Wavefunctions         1.62 Mb     (   8823,   12)
        NL pseudopotentials             3.50 Mb     (   8823,   26)
        Each V/rho on FFT grid          2.44 Mb     ( 160000)
        Each G-vector array             0.54 Mb     (  70221)
        G-vector shells                 0.54 Mb     (  70221)
     Largest temporary arrays     est. size (Mb)     dimensions
        Auxiliary wavefunctions         6.46 Mb     (   8823,   48)
        Each subspace H/S matrix        0.04 Mb     (  48,  48)
        Each <psi_i|beta_j> matrix      0.00 Mb     (     26,   12)
        Arrays for rho mixing          39.06 Mb     ( 160000,  16)

     Initial potential from superposition of free atoms

     starting charge   23.98928, renormalised to   24.00000
     Starting wfc are   30 randomized atomic wfcs

     total cpu time spent up to now is       63.0 secs

     per-process dynamical memory:    38.9 Mb

     Self-consistent Calculation

     iteration #  1     ecut=   120.00 Ry     beta=0.30
     Davidson diagonalization with overlap
     ethr =  1.00E-02,  avg # of iterations =  2.0

     Threshold (ethr) on eigenvalues was too large:
     Diagonalizing with lowered threshold

     Davidson diagonalization with overlap
     ethr =  9.46E-04,  avg # of iterations =  1.5

     total cpu time spent up to now is       99.5 secs

     total energy              =    -151.57225362 Ry
     Harris-Foulkes estimate   =    -151.59791152 Ry
     estimated scf accuracy    <       0.24273938 Ry

     iteration #  2     ecut=   120.00 Ry     beta=0.30
     Davidson diagonalization with overlap
     ethr =  1.01E-03,  avg # of iterations =  1.0

     total cpu time spent up to now is      118.0 secs

     total energy              =    -151.50927203 Ry
     Harris-Foulkes estimate   =    -151.57351341 Ry
     estimated scf accuracy    <       0.15476846 Ry

     iteration #  3     ecut=   120.00 Ry     beta=0.30
     Davidson diagonalization with overlap
     ethr =  6.45E-04,  avg # of iterations =  2.6

     total cpu time spent up to now is      138.1 secs

     total energy              =    -151.53284486 Ry
     Harris-Foulkes estimate   =    -151.53644127 Ry
     estimated scf accuracy    <       0.01167930 Ry

     iteration #  4     ecut=   120.00 Ry     beta=0.30
     Davidson diagonalization with overlap
     ethr =  4.87E-05,  avg # of iterations =  3.0

     total cpu time spent up to now is      159.4 secs

     total energy              =    -151.53455051 Ry
     Harris-Foulkes estimate   =    -151.53679175 Ry
     estimated scf accuracy    <       0.00612978 Ry

     iteration #  5     ecut=   120.00 Ry     beta=0.30
     Davidson diagonalization with overlap
     ethr =  2.55E-05,  avg # of iterations =  3.6

     total cpu time spent up to now is      180.7 secs

     total energy              =    -151.53572127 Ry
     Harris-Foulkes estimate   =    -151.53577040 Ry
     estimated scf accuracy    <       0.00012997 Ry

     iteration #  6     ecut=   120.00 Ry     beta=0.30
     Davidson diagonalization with overlap
     ethr =  5.42E-07,  avg # of iterations =  4.1

     total cpu time spent up to now is      205.4 secs

     total energy              =    -151.53579169 Ry
     Harris-Foulkes estimate   =    -151.53579071 Ry
     estimated scf accuracy    <       0.00000918 Ry

     iteration #  7     ecut=   120.00 Ry     beta=0.30
     Davidson diagonalization with overlap
     ethr =  3.83E-08,  avg # of iterations =  3.4

     total cpu time spent up to now is      231.5 secs

     total energy              =    -151.53579453 Ry
     Harris-Foulkes estimate   =    -151.53579447 Ry
     estimated scf accuracy    <       0.00000160 Ry

     iteration #  8     ecut=   120.00 Ry     beta=0.30
     Davidson diagonalization with overlap
     ethr =  6.65E-09,  avg # of iterations =  2.1

     total cpu time spent up to now is      249.9 secs

     End of self-consistent calculation

          k = 0.0833 0.1443 0.0666 (  8810 PWs)   bands (ev):

   -33.1257 -32.9918 -13.8893 -13.4885 -13.4828 -13.3405 -13.2703 -13.2692
     1.2957   4.0372   6.7097   7.1126

          k = 0.0833 0.1443 0.1999 (  8821 PWs)   bands (ev):

   -33.1078 -33.0098 -13.8391 -13.4690 -13.4465 -13.4417 -13.2986 -13.2679
     1.6738   3.7687   6.7165   7.2435

          k = 0.0833 0.1443 0.3332 (  8822 PWs)   bands (ev):

   -33.0768 -33.0408 -13.7397 -13.6035 -13.4037 -13.3792 -13.3476 -13.3113
     2.3432   3.1315   7.0039   7.2799

          k = 0.0833 0.3368 0.0666 (  8795 PWs)   bands (ev):

   -33.0984 -33.0039 -13.8034 -13.5745 -13.5268 -13.4480 -13.3285 -13.2686
     2.2578   4.3245   5.5995   6.3661

          k = 0.0833 0.3368 0.1999 (  8792 PWs)   bands (ev):

   -33.0855 -33.0165 -13.8312 -13.6124 -13.4953 -13.4502 -13.3055 -13.2694
     2.5895   4.2747   5.7693   6.0779

          k = 0.0833 0.3368 0.3332 (  8800 PWs)   bands (ev):

   -33.0635 -33.0383 -13.8140 -13.7343 -13.4380 -13.3678 -13.3464 -13.2779
     3.1753   3.8455   5.9541   6.0143

          k = 0.0833 0.5292 0.0666 (  8793 PWs)   bands (ev):

   -33.0698 -33.0215 -13.7376 -13.6132 -13.5419 -13.5402 -13.3974 -13.2689
     3.5564   4.1612   4.5989   6.1385

          k = 0.0833 0.5292 0.1999 (  8782 PWs)   bands (ev):

   -33.0630 -33.0276 -13.8347 -13.6993 -13.5347 -13.4314 -13.3162 -13.2922
     3.8234   4.4132   4.7510   5.7032

          k = 0.0833 0.5292 0.3332 (  8761 PWs)   bands (ev):

   -33.0515 -33.0385 -13.8646 -13.8157 -13.4631 -13.3824 -13.3215 -13.2705
     4.2757   4.6750   4.8755   5.1872

          k = 0.0833-0.4330 0.0666 (  8788 PWs)   bands (ev):

   -33.0820 -33.0132 -13.7585 -13.6116 -13.5379 -13.4997 -13.3685 -13.2687
     2.8981   4.3952   4.9560   6.2187

          k = 0.0833-0.4330 0.1999 (  8788 PWs)   bands (ev):

   -33.0726 -33.0222 -13.8321 -13.6693 -13.5201 -13.4412 -13.3108 -13.2825
     3.1987   4.5012   5.1342   5.8304

          k = 0.0833-0.4330 0.3332 (  8779 PWs)   bands (ev):

   -33.0564 -33.0380 -13.8464 -13.7867 -13.4539 -13.3770 -13.3311 -13.2718
     3.7222   4.2880   5.3846   5.5659

          k = 0.0833-0.2406 0.0666 (  8796 PWs)   bands (ev):

   -33.1138 -32.9966 -13.8516 -13.5250 -13.5074 -13.3927 -13.2925 -13.2692
     1.7033   4.1826   6.3354   6.5469

          k = 0.0833-0.2406 0.1999 (  8800 PWs)   bands (ev):

   -33.0980 -33.0123 -13.8342 -13.5394 -13.4675 -13.4516 -13.3014 -13.2627
     2.0617   4.0012   6.3932   6.4924

          k = 0.0833-0.2406 0.3332 (  8820 PWs)   bands (ev):

   -33.0708 -33.0395 -13.7751 -13.6683 -13.4195 -13.3646 -13.3563 -13.2914
     2.6967   3.4394   6.4976   6.6117

          k = 0.0833-0.0481 0.0666 (  8823 PWs)   bands (ev):

   -33.1321 -32.9896 -13.9097 -13.4706 -13.4662 -13.3040 -13.2716 -13.2614
     1.0800   3.9471   6.8056   7.7276

          k = 0.0833-0.0481 0.1999 (  8809 PWs)   bands (ev):

   -33.1129 -33.0087 -13.8428 -13.4405 -13.4403 -13.4059 -13.2977 -13.2810
     1.4686   3.6372   6.9229   7.8473

          k = 0.0833-0.0481 0.3332 (  8822 PWs)   bands (ev):

   -33.0800 -33.0417 -13.7183 -13.5597 -13.3952 -13.3875 -13.3430 -13.3289
     2.1558   2.9661   7.3618   7.8028

          k = 0.2500 0.4330 0.0666 (  8799 PWs)   bands (ev):

   -33.0699 -33.0214 -13.7132 -13.6500 -13.5285 -13.5245 -13.3927 -13.2917
     3.2935   4.4185   4.7392   6.1403

          k = 0.2500 0.4330 0.1999 (  8784 PWs)   bands (ev):

   -33.0631 -33.0276 -13.8048 -13.7044 -13.5748 -13.3982 -13.3367 -13.2912
     3.5772   4.5868   4.9531   5.7617

          k = 0.2500 0.4330 0.3332 (  8784 PWs)   bands (ev):

   -33.0516 -33.0386 -13.8418 -13.8037 -13.5056 -13.4172 -13.2952 -13.2562
     4.0624   4.5417   5.2382   5.4163

          k = 0.2500 0.6255 0.0666 (  8807 PWs)   bands (ev):

   -33.0567 -33.0317 -13.6848 -13.6532 -13.5767 -13.5007 -13.4267 -13.2986
     3.8178   4.2782   4.4741   6.0858

          k = 0.2500 0.6255 0.1999 (  8800 PWs)   bands (ev):

   -33.0531 -33.0348 -13.7880 -13.7270 -13.6068 -13.3706 -13.3480 -13.3087
     4.0702   4.5236   4.6870   5.7274

          k = 0.2500 0.6255 0.3332 (  8778 PWs)   bands (ev):

   -33.0469 -33.0402 -13.8432 -13.8210 -13.5273 -13.4323 -13.2781 -13.2557
     4.4910   4.7801   4.9447   5.2339

          k = 0.2500-0.3368 0.0666 (  8789 PWs)   bands (ev):

   -33.0848 -33.0115 -13.7611 -13.6122 -13.5370 -13.4830 -13.3577 -13.2798
     2.7460   4.3977   5.1461   6.2412

          k = 0.2500-0.3368 0.1999 (  8785 PWs)   bands (ev):

   -33.0748 -33.0211 -13.8217 -13.6635 -13.5321 -13.4275 -13.3214 -13.2763
     3.0553   4.4628   5.3397   5.8812

          k = 0.2500-0.3368 0.3332 (  8777 PWs)   bands (ev):

   -33.0575 -33.0379 -13.8324 -13.7734 -13.4714 -13.3926 -13.3201 -13.2640
     3.5962   4.1897   5.5797   5.6857

          k = 0.2500-0.1443 0.0666 (  8796 PWs)   bands (ev):

   -33.1084 -32.9990 -13.8349 -13.5482 -13.5072 -13.4180 -13.3060 -13.2650
     1.8954   4.2384   6.0410   6.4798

          k = 0.2500-0.1443 0.1999 (  8799 PWs)   bands (ev):

   -33.0936 -33.0137 -13.8341 -13.5650 -13.4752 -13.4572 -13.2979 -13.2667
     2.2443   4.1015   6.1826   6.2893

          k = 0.2500-0.1443 0.3332 (  8812 PWs)   bands (ev):

   -33.0683 -33.0390 -13.7914 -13.6946 -13.4194 -13.3635 -13.3545 -13.2895
     2.8623   3.5812   6.2906   6.3639

          k = 0.4167 0.7217 0.0666 (  8798 PWs)   bands (ev):

   -33.0623 -33.0271 -13.7147 -13.6284 -13.5632 -13.5211 -13.4133 -13.2846
     3.8998   3.9994   4.5564   6.1045

          k = 0.4167 0.7217 0.1999 (  8787 PWs)   bands (ev):

   -33.0573 -33.0315 -13.8146 -13.7123 -13.5772 -13.3960 -13.3365 -13.2974
     4.1261   4.2882   4.7404   5.7050

          k = 0.4167 0.7217 0.3332 (  8761 PWs)   bands (ev):

   -33.0488 -33.0393 -13.8561 -13.8196 -13.5001 -13.4111 -13.2960 -13.2599
     4.5366   4.6745   4.8960   5.1369

          k = 0.4167-0.2406 0.0666 (  8798 PWs)   bands (ev):

   -33.0767 -33.0167 -13.7517 -13.6091 -13.5440 -13.5201 -13.3824 -13.2625
     3.1829   4.3449   4.7127   6.1804

          k = 0.4167-0.2406 0.1999 (  8788 PWs)   bands (ev):

   -33.0685 -33.0244 -13.8398 -13.6838 -13.5069 -13.4551 -13.3009 -13.2933
     3.4687   4.5342   4.8634   5.7537

          k = 0.4167-0.2406 0.3332 (  8773 PWs)   bands (ev):

   -33.0543 -33.0381 -13.8608 -13.8040 -13.4423 -13.3669 -13.3381 -13.2778
     3.9609   4.4700   5.1105   5.3710

!    total energy              =    -151.53579454 Ry
     Harris-Foulkes estimate   =    -151.53579465 Ry
     estimated scf accuracy    <       0.00000035 Ry

     The total energy is the sum of the following terms:

     one-electron contribution =     -48.47245937 Ry
     hartree contribution      =      30.10103158 Ry
     xc contribution           =     -23.62192882 Ry
     ewald contribution        =    -109.54243792 Ry

     convergence has been achieved in   8 iterations

     Forces acting on atoms (Ry/au):

     atom    1 type  2   force =     0.00000000   -0.00000000    0.00000000
     atom    2 type  2   force =     0.00000000    0.00000000    0.00000000
     atom    3 type  1   force =     0.00000000   -0.00000000   -0.00000000
     atom    4 type  1   force =     0.00000000    0.00000000    0.00000000
     atom    5 type  1   force =    -0.00000000    0.00000000   -0.00000000
     atom    6 type  1   force =     0.00000000    0.00000000   -0.00000000

     Total force =     0.000000     Total SCF correction =     0.000000


     entering subroutine stress ...

          total   stress  (Ry/bohr**3)                   (kbar)     P=   85.94
   0.00036574  -0.00000000   0.00000000         53.80     -0.00      0.00
  -0.00000000   0.00036574  -0.00000000         -0.00     53.80     -0.00
  -0.00000000   0.00000000   0.00102106         -0.00      0.00    150.20


     BFGS Geometry Optimization

     number of scf cycles    =   1
     number of bfgs steps    =   0

     enthalpy new            =    -150.9971968131 Ry

     new trust radius        =       0.0989041023 bohr
     new conv_thr            =       0.0000010000 Ry

     new unit-cell volume =    373.52332 a.u.^3 (    55.35044 Ang^3 )

CELL_PARAMETERS (alat=  7.15200000)
   0.975154184  -0.000000000  -0.000000000
  -0.487577092   0.844508296   0.000000000
   0.000000000  -0.000000000   1.239818156

ATOMIC_POSITIONS (crystal)
Ca       0.333333333   0.666666667   0.250000000
Ca       0.666666667   0.333333333   0.750000000
H        0.333333333   0.666666667   0.750000000
H        0.666666667   0.333333333   0.250000000
H       -0.000000000   0.000000000  -0.000000000
H        0.000000000   0.000000000   0.500000000



     Writing output data file CaH2_18GPa-blyp-0200.save
     NEW-OLD atomic charge density approx. for the potential
     NEW k-points:
        k(    1) = (   0.0854566   0.1480151   0.0672142), wk =   0.0370370
        k(    2) = (   0.0854566   0.1480151   0.2016425), wk =   0.0370370
        k(    3) = (   0.0854566   0.1480151   0.3360708), wk =   0.0370370
        k(    4) = (   0.0854566   0.3453686   0.0672142), wk =   0.0740741
        k(    5) = (   0.0854566   0.3453686   0.2016425), wk =   0.0740741
        k(    6) = (   0.0854566   0.3453686   0.3360708), wk =   0.0740741
        k(    7) = (   0.0854566   0.5427221   0.0672142), wk =   0.0740741
        k(    8) = (   0.0854566   0.5427221   0.2016425), wk =   0.0740741
        k(    9) = (   0.0854566   0.5427221   0.3360708), wk =   0.0740741
        k(   10) = (   0.0854566  -0.4440454   0.0672142), wk =   0.0740741
        k(   11) = (   0.0854566  -0.4440454   0.2016425), wk =   0.0740741
        k(   12) = (   0.0854566  -0.4440454   0.3360708), wk =   0.0740741
        k(   13) = (   0.0854566  -0.2466919   0.0672142), wk =   0.0740741
        k(   14) = (   0.0854566  -0.2466919   0.2016425), wk =   0.0740741
        k(   15) = (   0.0854566  -0.2466919   0.3360708), wk =   0.0740741
        k(   16) = (   0.0854566  -0.0493384   0.0672142), wk =   0.0370370
        k(   17) = (   0.0854566  -0.0493384   0.2016425), wk =   0.0370370
        k(   18) = (   0.0854566  -0.0493384   0.3360708), wk =   0.0370370
        k(   19) = (   0.2563697   0.4440454   0.0672142), wk =   0.0370370
        k(   20) = (   0.2563697   0.4440454   0.2016425), wk =   0.0370370
        k(   21) = (   0.2563697   0.4440454   0.3360708), wk =   0.0370370
        k(   22) = (   0.2563697   0.6413989   0.0672142), wk =   0.0740741
        k(   23) = (   0.2563697   0.6413989   0.2016425), wk =   0.0740741
        k(   24) = (   0.2563697   0.6413989   0.3360708), wk =   0.0740741
        k(   25) = (   0.2563697  -0.3453686   0.0672142), wk =   0.0740741
        k(   26) = (   0.2563697  -0.3453686   0.2016425), wk =   0.0740741
        k(   27) = (   0.2563697  -0.3453686   0.3360708), wk =   0.0740741
        k(   28) = (   0.2563697  -0.1480151   0.0672142), wk =   0.0370370
        k(   29) = (   0.2563697  -0.1480151   0.2016425), wk =   0.0370370
        k(   30) = (   0.2563697  -0.1480151   0.3360708), wk =   0.0370370
        k(   31) = (   0.4272829   0.7400756   0.0672142), wk =   0.0370370
        k(   32) = (   0.4272829   0.7400756   0.2016425), wk =   0.0370370
        k(   33) = (   0.4272829   0.7400756   0.3360708), wk =   0.0370370
        k(   34) = (   0.4272829  -0.2466919   0.0672142), wk =   0.0370370
        k(   35) = (   0.4272829  -0.2466919   0.2016425), wk =   0.0370370
        k(   36) = (   0.4272829  -0.2466919   0.3360708), wk =   0.0370370
     extrapolated charge   22.54667, renormalised to   24.00000

     total cpu time spent up to now is      374.3 secs

     per-process dynamical memory:    52.7 Mb

     Self-consistent Calculation

     iteration #  1     ecut=   120.00 Ry     beta=0.30
     Davidson diagonalization with overlap
     ethr =  1.00E-06,  avg # of iterations =  8.9

     total cpu time spent up to now is      424.5 secs

     total energy              =    -151.38883484 Ry
     Harris-Foulkes estimate   =    -153.16152719 Ry
     estimated scf accuracy    <       0.12979780 Ry

     iteration #  2     ecut=   120.00 Ry     beta=0.30
     Davidson diagonalization with overlap
     ethr =  5.41E-04,  avg # of iterations =  3.1

     total cpu time spent up to now is      450.7 secs

     total energy              =    -151.51338013 Ry
     Harris-Foulkes estimate   =    -151.50810170 Ry
     estimated scf accuracy    <       0.00274554 Ry

     iteration #  3     ecut=   120.00 Ry     beta=0.30
     Davidson diagonalization with overlap
     ethr =  1.14E-05,  avg # of iterations =  2.1

     total cpu time spent up to now is      468.7 secs

     total energy              =    -151.51897896 Ry
     Harris-Foulkes estimate   =    -151.51356436 Ry
     estimated scf accuracy    <       0.00174303 Ry

     iteration #  4     ecut=   120.00 Ry     beta=0.30
     Davidson diagonalization with overlap
     ethr =  7.26E-06,  avg # of iterations =  1.1

     total cpu time spent up to now is      485.6 secs

     total energy              =    -151.52087983 Ry
     Harris-Foulkes estimate   =    -151.51904134 Ry
     estimated scf accuracy    <       0.00070379 Ry

     iteration #  5     ecut=   120.00 Ry     beta=0.30
     Davidson diagonalization with overlap
     ethr =  2.93E-06,  avg # of iterations =  3.0

     total cpu time spent up to now is      505.2 secs

     total energy              =    -151.52096903 Ry
     Harris-Foulkes estimate   =    -151.52098250 Ry
     estimated scf accuracy    <       0.00007995 Ry

     iteration #  6     ecut=   120.00 Ry     beta=0.30
     Davidson diagonalization with overlap
     ethr =  3.33E-07,  avg # of iterations =  3.1

     total cpu time spent up to now is      531.6 secs

     total energy              =    -151.52103410 Ry
     Harris-Foulkes estimate   =    -151.52099695 Ry
     estimated scf accuracy    <       0.00001053 Ry

     iteration #  7     ecut=   120.00 Ry     beta=0.30
     Davidson diagonalization with overlap
     ethr =  4.39E-08,  avg # of iterations =  2.5

     total cpu time spent up to now is      553.9 secs

     End of self-consistent calculation

          k = 0.0855 0.1480 0.0672 (  8810 PWs)   bands (ev):

   -32.3506 -32.1877 -13.1820 -12.7090 -12.6986 -12.5416 -12.4593 -12.4514
     1.7390   4.5121   7.2189   7.7537

          k = 0.0855 0.1480 0.2016 (  8821 PWs)   bands (ev):

   -32.3288 -32.2097 -13.1221 -12.6880 -12.6611 -12.6520 -12.4912 -12.4537
     2.1275   4.2498   7.2317   7.8714

          k = 0.0855 0.1480 0.3361 (  8822 PWs)   bands (ev):

   -32.2912 -32.2475 -13.0045 -12.8449 -12.6091 -12.5838 -12.5463 -12.5051
     2.8118   3.6116   7.5450   7.8698

          k = 0.0855 0.3454 0.0672 (  8795 PWs)   bands (ev):

   -32.3158 -32.2010 -13.0791 -12.8236 -12.7573 -12.6715 -12.5242 -12.4602
     2.7714   4.8543   6.1552   6.8196

          k = 0.0855 0.3454 0.2016 (  8792 PWs)   bands (ev):

   -32.3002 -32.2162 -13.1134 -12.8649 -12.7178 -12.6738 -12.5025 -12.4590
     3.1054   4.8086   6.3197   6.5498

          k = 0.0855 0.3454 0.3361 (  8800 PWs)   bands (ev):

   -32.2735 -32.2428 -13.0946 -13.0035 -12.6530 -12.5741 -12.5511 -12.4704
     3.6951   4.3722   6.4778   6.5333

          k = 0.0855 0.5427 0.0672 (  8793 PWs)   bands (ev):

   -32.2798 -32.2212 -13.0121 -12.8666 -12.7836 -12.7742 -12.6116 -12.4624
     4.1263   4.7566   5.0958   6.5552

          k = 0.0855 0.5427 0.2016 (  8782 PWs)   bands (ev):

   -32.2717 -32.2287 -13.1247 -12.9671 -12.7677 -12.6533 -12.5186 -12.4880
     4.3839   5.0091   5.2591   6.1495

          k = 0.0855 0.5427 0.3361 (  8761 PWs)   bands (ev):

   -32.2577 -32.2420 -13.1590 -13.1020 -12.6853 -12.5931 -12.5247 -12.4643
     4.8218   5.2591   5.3894   5.6852

          k = 0.0855-0.4440 0.0672 (  8788 PWs)   bands (ev):

   -32.2952 -32.2115 -13.0286 -12.8706 -12.7718 -12.7331 -12.5742 -12.4614
     3.4455   4.9575   5.4834   6.6484

          k = 0.0855-0.4440 0.2016 (  8788 PWs)   bands (ev):

   -32.2838 -32.2225 -13.1179 -12.9326 -12.7492 -12.6648 -12.5105 -12.4759
     3.7431   5.0654   5.6649   6.2847

          k = 0.0855-0.4440 0.3361 (  8779 PWs)   bands (ev):

   -32.2641 -32.2417 -13.1354 -13.0671 -12.6735 -12.5860 -12.5352 -12.4649
     4.2626   4.8341   5.9138   6.0692

          k = 0.0855-0.2467 0.0672 (  8796 PWs)   bands (ev):

   -32.3354 -32.1928 -13.1365 -12.7576 -12.7315 -12.6051 -12.4801 -12.4594
     2.1790   4.6834   6.9255   7.0298

          k = 0.0855-0.2467 0.2016 (  8800 PWs)   bands (ev):

   -32.3162 -32.2120 -13.1157 -12.7757 -12.6827 -12.6719 -12.4960 -12.4492
     2.5442   4.5067   6.8867   7.0737

          k = 0.0855-0.2467 0.3361 (  8820 PWs)   bands (ev):

   -32.2832 -32.2451 -13.0469 -12.9234 -12.6294 -12.5706 -12.5577 -12.4840
     3.1896   3.9417   7.0172   7.1695

          k = 0.0855-0.0493 0.0672 (  8823 PWs)   bands (ev):

   -32.3587 -32.1853 -13.2066 -12.6845 -12.6775 -12.4966 -12.4600 -12.4415
     1.5048   4.4066   7.3305   8.4236

          k = 0.0855-0.0493 0.2016 (  8809 PWs)   bands (ev):

   -32.3356 -32.2087 -13.1270 -12.6507 -12.6486 -12.6118 -12.4893 -12.4686
     1.9058   4.1042   7.4539   8.5240

          k = 0.0855-0.0493 0.3361 (  8822 PWs)   bands (ev):

   -32.2956 -32.2490 -12.9795 -12.7924 -12.5983 -12.5908 -12.5400 -12.5242
     2.6103   3.4332   7.9211   8.4245

          k = 0.2564 0.4440 0.0672 (  8799 PWs)   bands (ev):

   -32.2801 -32.2210 -12.9736 -12.9136 -12.7664 -12.7615 -12.6041 -12.4938
     3.8577   4.9914   5.2787   6.5553

          k = 0.2564 0.4440 0.2016 (  8784 PWs)   bands (ev):

   -32.2719 -32.2286 -13.0838 -12.9736 -12.8176 -12.6153 -12.5454 -12.4866
     4.1371   5.1692   5.4950   6.2002

          k = 0.2564 0.4440 0.3361 (  8784 PWs)   bands (ev):

   -32.2579 -32.2420 -13.1280 -13.0853 -12.7406 -12.6394 -12.4923 -12.4460
     4.6174   5.1112   5.7744   5.9090

          k = 0.2564 0.6414 0.0672 (  8807 PWs)   bands (ev):

   -32.2637 -32.2332 -12.9512 -12.9079 -12.8186 -12.7367 -12.6470 -12.5039
     4.3846   4.8615   5.0279   6.4910

          k = 0.2564 0.6414 0.2016 (  8800 PWs)   bands (ev):

   -32.2593 -32.2370 -13.0659 -12.9963 -12.8597 -12.5827 -12.5606 -12.5081
     4.6273   5.1145   5.2495   6.1612

          k = 0.2564 0.6414 0.3361 (  8778 PWs)   bands (ev):

   -32.2518 -32.2436 -13.1299 -13.1044 -12.7691 -12.6594 -12.4725 -12.4459
     5.0395   5.3844   5.4947   5.7115

          k = 0.2564-0.3454 0.0672 (  8789 PWs)   bands (ev):

   -32.2988 -32.2095 -13.0292 -12.8675 -12.7788 -12.7092 -12.5606 -12.4766
     3.2879   4.9504   5.6876   6.6738

          k = 0.2564-0.3454 0.2016 (  8785 PWs)   bands (ev):

   -32.2866 -32.2213 -13.1030 -12.9262 -12.7635 -12.6489 -12.5244 -12.4679
     3.5962   5.0219   5.8808   6.3342

          k = 0.2564-0.3454 0.3361 (  8777 PWs)   bands (ev):

   -32.2656 -32.2418 -13.1169 -13.0502 -12.6962 -12.6067 -12.5210 -12.4545
     4.1365   4.7369   6.1101   6.1851

          k = 0.2564-0.1480 0.0672 (  8796 PWs)   bands (ev):

   -32.3286 -32.1955 -13.1165 -12.7903 -12.7279 -12.6383 -12.4965 -12.4543
     2.3848   4.7494   6.6163   6.9519

          k = 0.2564-0.1480 0.2016 (  8799 PWs)   bands (ev):

   -32.3106 -32.2133 -13.1161 -12.8074 -12.6918 -12.6807 -12.4915 -12.4550
     2.7389   4.6167   6.7200   6.8052

          k = 0.2564-0.1480 0.3361 (  8812 PWs)   bands (ev):

   -32.2798 -32.2441 -13.0670 -12.9555 -12.6289 -12.5709 -12.5555 -12.4833
     3.3649   4.0920   6.8071   6.9097

          k = 0.4273 0.7401 0.0672 (  8798 PWs)   bands (ev):

   -32.2706 -32.2278 -12.9868 -12.8784 -12.8066 -12.7575 -12.6315 -12.4842
     4.4621   4.5969   5.0825   6.5141

          k = 0.4273 0.7401 0.2016 (  8787 PWs)   bands (ev):

   -32.2646 -32.2331 -13.1001 -12.9801 -12.8217 -12.6111 -12.5458 -12.4944
     4.6762   4.8886   5.2803   6.1439

          k = 0.4273 0.7401 0.3361 (  8761 PWs)   bands (ev):

   -32.2542 -32.2427 -13.1473 -13.1046 -12.7335 -12.6312 -12.4937 -12.4511
     5.0732   5.2826   5.4490   5.6027

          k = 0.4273-0.2467 0.0672 (  8798 PWs)   bands (ev):

   -32.2886 -32.2156 -13.0248 -12.8682 -12.7730 -12.7605 -12.5921 -12.4535
     3.7408   4.9387   5.2058   6.6045

          k = 0.4273-0.2467 0.2016 (  8788 PWs)   bands (ev):

   -32.2785 -32.2250 -13.1296 -12.9498 -12.7312 -12.6836 -12.4972 -12.4906
     4.0204   5.1249   5.3666   6.2060

          k = 0.4273-0.2467 0.3361 (  8773 PWs)   bands (ev):

   -32.2613 -32.2417 -13.1542 -13.0886 -12.6580 -12.5723 -12.5453 -12.4736
     4.5031   5.0188   5.6410   5.8758

!    total energy              =    -151.52105229 Ry
     Harris-Foulkes estimate   =    -151.52103568 Ry
     estimated scf accuracy    <       0.00000024 Ry

     The total energy is the sum of the following terms:

     one-electron contribution =     -45.17431496 Ry
     hartree contribution      =      29.12532345 Ry
     xc contribution           =     -23.72150396 Ry
     ewald contribution        =    -111.75055682 Ry

     convergence has been achieved in   7 iterations

     Forces acting on atoms (Ry/au):

     atom    1 type  2   force =    -0.00000000    0.00000000    0.00000000
     atom    2 type  2   force =     0.00000000   -0.00000000   -0.00000000
     atom    3 type  1   force =    -0.00000000   -0.00000000    0.00000000
     atom    4 type  1   force =     0.00000000    0.00000000   -0.00000000
     atom    5 type  1   force =     0.00000000    0.00000000    0.00000000
     atom    6 type  1   force =    -0.00000000    0.00000000    0.00000000

     Total force =     0.000000     Total SCF correction =     0.000000


     entering subroutine stress ...

          total   stress  (Ry/bohr**3)                   (kbar)     P=  139.97
   0.00079018   0.00000000   0.00000000        116.24      0.00      0.00
   0.00000000   0.00079018  -0.00000000          0.00    116.24     -0.00
   0.00000000  -0.00000000   0.00127413          0.00     -0.00    187.43


     number of scf cycles    =   2
     number of bfgs steps    =   1

     enthalpy old            =    -150.9971968131 Ry
     enthalpy new            =    -151.0132202284 Ry

     CASE: enthalpy_new < enthalpy_old

     new trust radius        =       0.1201140467 bohr
     new conv_thr            =       0.0000000100 Ry

     new unit-cell volume =    349.04790 a.u.^3 (    51.72356 Ang^3 )

CELL_PARAMETERS (alat=  7.15200000)
   0.944851700   0.000000000  -0.000000000
  -0.472425850   0.818265575   0.000000000
   0.000000000  -0.000000000   1.234083599

ATOMIC_POSITIONS (crystal)
Ca       0.333333333   0.666666667   0.250000000
Ca       0.666666667   0.333333333   0.750000000
H        0.333333333   0.666666667   0.750000000
H        0.666666667   0.333333333   0.250000000
H        0.000000000   0.000000000  -0.000000000
H        0.000000000   0.000000000   0.500000000



     Writing output data file CaH2_18GPa-blyp-0200.save
     NEW-OLD atomic charge density approx. for the potential
     NEW k-points:
        k(    1) = (   0.0881973   0.1527621   0.0675265), wk =   0.0370370
        k(    2) = (   0.0881973   0.1527621   0.2025795), wk =   0.0370370
        k(    3) = (   0.0881973   0.1527621   0.3376324), wk =   0.0370370
        k(    4) = (   0.0881973   0.3564450   0.0675265), wk =   0.0740741
        k(    5) = (   0.0881973   0.3564450   0.2025795), wk =   0.0740741
        k(    6) = (   0.0881973   0.3564450   0.3376324), wk =   0.0740741
        k(    7) = (   0.0881973   0.5601278   0.0675265), wk =   0.0740741
        k(    8) = (   0.0881973   0.5601278   0.2025795), wk =   0.0740741
        k(    9) = (   0.0881973   0.5601278   0.3376324), wk =   0.0740741
        k(   10) = (   0.0881973  -0.4582864   0.0675265), wk =   0.0740741
        k(   11) = (   0.0881973  -0.4582864   0.2025795), wk =   0.0740741
        k(   12) = (   0.0881973  -0.4582864   0.3376324), wk =   0.0740741
        k(   13) = (   0.0881973  -0.2546036   0.0675265), wk =   0.0740741
        k(   14) = (   0.0881973  -0.2546036   0.2025795), wk =   0.0740741
        k(   15) = (   0.0881973  -0.2546036   0.3376324), wk =   0.0740741
        k(   16) = (   0.0881973  -0.0509207   0.0675265), wk =   0.0370370
        k(   17) = (   0.0881973  -0.0509207   0.2025795), wk =   0.0370370
        k(   18) = (   0.0881973  -0.0509207   0.3376324), wk =   0.0370370
        k(   19) = (   0.2645918   0.4582864   0.0675265), wk =   0.0370370
        k(   20) = (   0.2645918   0.4582864   0.2025795), wk =   0.0370370
        k(   21) = (   0.2645918   0.4582864   0.3376324), wk =   0.0370370
        k(   22) = (   0.2645918   0.6619693   0.0675265), wk =   0.0740741
        k(   23) = (   0.2645918   0.6619693   0.2025795), wk =   0.0740741
        k(   24) = (   0.2645918   0.6619693   0.3376324), wk =   0.0740741
        k(   25) = (   0.2645918  -0.3564450   0.0675265), wk =   0.0740741
        k(   26) = (   0.2645918  -0.3564450   0.2025795), wk =   0.0740741
        k(   27) = (   0.2645918  -0.3564450   0.3376324), wk =   0.0740741
        k(   28) = (   0.2645918  -0.1527621   0.0675265), wk =   0.0370370
        k(   29) = (   0.2645918  -0.1527621   0.2025795), wk =   0.0370370
        k(   30) = (   0.2645918  -0.1527621   0.3376324), wk =   0.0370370
        k(   31) = (   0.4409863   0.7638107   0.0675265), wk =   0.0370370
        k(   32) = (   0.4409863   0.7638107   0.2025795), wk =   0.0370370
        k(   33) = (   0.4409863   0.7638107   0.3376324), wk =   0.0370370
        k(   34) = (   0.4409863  -0.2546036   0.0675265), wk =   0.0370370
        k(   35) = (   0.4409863  -0.2546036   0.2025795), wk =   0.0370370
        k(   36) = (   0.4409863  -0.2546036   0.3376324), wk =   0.0370370
     extrapolated charge   22.31786, renormalised to   24.00000

     total cpu time spent up to now is      677.9 secs

     per-process dynamical memory:    52.7 Mb

     Self-consistent Calculation

     iteration #  1     ecut=   120.00 Ry     beta=0.30
     Davidson diagonalization with overlap
     ethr =  1.00E-06,  avg # of iterations =  9.1

     total cpu time spent up to now is      727.9 secs

     total energy              =    -151.32375287 Ry
     Harris-Foulkes estimate   =    -153.22340754 Ry
     estimated scf accuracy    <       0.16821926 Ry

     iteration #  2     ecut=   120.00 Ry     beta=0.30
     Davidson diagonalization with overlap
     ethr =  7.01E-04,  avg # of iterations =  3.1

     total cpu time spent up to now is      754.2 secs

     total energy              =    -151.48395561 Ry
     Harris-Foulkes estimate   =    -151.47776517 Ry
     estimated scf accuracy    <       0.00325831 Ry

     iteration #  3     ecut=   120.00 Ry     beta=0.30
     Davidson diagonalization with overlap
     ethr =  1.36E-05,  avg # of iterations =  2.0

     total cpu time spent up to now is      772.1 secs

     total energy              =    -151.49160597 Ry
     Harris-Foulkes estimate   =    -151.48415641 Ry
     estimated scf accuracy    <       0.00208170 Ry

     iteration #  4     ecut=   120.00 Ry     beta=0.30
     Davidson diagonalization with overlap
     ethr =  8.67E-06,  avg # of iterations =  1.4

     total cpu time spent up to now is      789.3 secs

     total energy              =    -151.49325567 Ry
     Harris-Foulkes estimate   =    -151.49171046 Ry
     estimated scf accuracy    <       0.00064159 Ry

     iteration #  5     ecut=   120.00 Ry     beta=0.30
     Davidson diagonalization with overlap
     ethr =  2.67E-06,  avg # of iterations =  3.0

     total cpu time spent up to now is      809.6 secs

     total energy              =    -151.49331110 Ry
     Harris-Foulkes estimate   =    -151.49336609 Ry
     estimated scf accuracy    <       0.00007144 Ry

     iteration #  6     ecut=   120.00 Ry     beta=0.30
     Davidson diagonalization with overlap
     ethr =  2.98E-07,  avg # of iterations =  3.2

     total cpu time spent up to now is      836.4 secs

     total energy              =    -151.49338489 Ry
     Harris-Foulkes estimate   =    -151.49333782 Ry
     estimated scf accuracy    <       0.00001230 Ry

     iteration #  7     ecut=   120.00 Ry     beta=0.30
     Davidson diagonalization with overlap
     ethr =  5.12E-08,  avg # of iterations =  2.3

     total cpu time spent up to now is      858.0 secs

     total energy              =    -151.49339747 Ry
     Harris-Foulkes estimate   =    -151.49338653 Ry
     estimated scf accuracy    <       0.00000012 Ry

     iteration #  8     ecut=   120.00 Ry     beta=0.30
     Davidson diagonalization with overlap
     ethr =  4.96E-10,  avg # of iterations =  4.1

     total cpu time spent up to now is      885.3 secs

     total energy              =    -151.49340176 Ry
     Harris-Foulkes estimate   =    -151.49339757 Ry
     estimated scf accuracy    <       0.00000004 Ry

     iteration #  9     ecut=   120.00 Ry     beta=0.30
     Davidson diagonalization with overlap
     ethr =  1.56E-10,  avg # of iterations =  2.7

     total cpu time spent up to now is      910.4 secs

     total energy              =    -151.49340174 Ry
     Harris-Foulkes estimate   =    -151.49340178 Ry
     estimated scf accuracy    <       0.00000001 Ry

     iteration # 10     ecut=   120.00 Ry     beta=0.30
     Davidson diagonalization with overlap
     ethr =  5.77E-11,  avg # of iterations =  3.5

     total cpu time spent up to now is      936.4 secs

     End of self-consistent calculation

          k = 0.0882 0.1528 0.0675 (  8810 PWs)   bands (ev):

   -31.4252 -31.2259 -12.3450 -11.7699 -11.7508 -11.5853 -11.4844 -11.4689
     2.3064   5.1066   7.8008   8.5627

          k = 0.0882 0.1528 0.2026 (  8821 PWs)   bands (ev):

   -31.3987 -31.2528 -12.2709 -11.7516 -11.7161 -11.6988 -11.5198 -11.4767
     2.7022   4.8431   7.8352   8.6515

          k = 0.0882 0.1528 0.3376 (  8822 PWs)   bands (ev):

   -31.3527 -31.2993 -12.1282 -11.9379 -11.6502 -11.6285 -11.5807 -11.5378
     3.3961   4.2023   8.1881   8.5830

          k = 0.0882 0.3564 0.0675 (  8795 PWs)   bands (ev):

   -31.3794 -31.2388 -12.2181 -11.9327 -11.8352 -11.7456 -11.5597 -11.4911
     3.4346   5.5256   6.8587   7.3320

          k = 0.0882 0.3564 0.2026 (  8792 PWs)   bands (ev):

   -31.3605 -31.2576 -12.2595 -11.9774 -11.7835 -11.7471 -11.5397 -11.4902
     3.7643   5.4736   6.9970   7.1155

          k = 0.0882 0.3564 0.3376 (  8800 PWs)   bands (ev):

   -31.3278 -31.2901 -12.2382 -12.1340 -11.7094 -11.6233 -11.6009 -11.5067
     4.3473   5.0231   7.1002   7.1816

          k = 0.0882 0.5601 0.0675 (  8793 PWs)   bands (ev):

   -31.3329 -31.2613 -12.1580 -11.9779 -11.8905 -11.8520 -11.6725 -11.4977
     4.8528   5.5125   5.7406   7.0218

          k = 0.0882 0.5601 0.2026 (  8782 PWs)   bands (ev):

   -31.3230 -31.2705 -12.2852 -12.1005 -11.8483 -11.7264 -11.5671 -11.5275
     5.0859   5.7414   5.9220   6.6781

          k = 0.0882 0.5601 0.3376 (  8761 PWs)   bands (ev):

   -31.3060 -31.2868 -12.3234 -12.2565 -11.7526 -11.6481 -11.5766 -11.5044
     5.4800   5.8828   6.1179   6.3276

          k = 0.0882-0.4583 0.0675 (  8788 PWs)   bands (ev):

   -31.3527 -31.2503 -12.1626 -11.9940 -11.8590 -11.8183 -11.6231 -11.4951
     4.1507   5.6659   6.1624   7.1311

          k = 0.0882-0.4583 0.2026 (  8788 PWs)   bands (ev):

   -31.3387 -31.2638 -12.2706 -12.0604 -11.8246 -11.7400 -11.5534 -11.5127
     4.4358   5.7634   6.3380   6.8221

          k = 0.0882-0.4583 0.3376 (  8779 PWs)   bands (ev):

   -31.3147 -31.2873 -12.2916 -12.2134 -11.7369 -11.6385 -11.5873 -11.5034
     4.9351   5.4989   6.5729   6.6924

          k = 0.0882-0.2546 0.0675 (  8796 PWs)   bands (ev):

   -31.4052 -31.2306 -12.2886 -11.8395 -11.7973 -11.6644 -11.5048 -11.4873
     2.7912   5.3152   7.5775   7.6709

          k = 0.0882-0.2546 0.2026 (  8800 PWs)   bands (ev):

   -31.3818 -31.2542 -12.2614 -11.8647 -11.7401 -11.7347 -11.5284 -11.4750
     3.1588   5.1341   7.4643   7.7985

          k = 0.0882-0.2546 0.3376 (  8820 PWs)   bands (ev):

   -31.3415 -31.2948 -12.1785 -12.0343 -11.6775 -11.6214 -11.5968 -11.5182
     3.8071   4.5626   7.6391   7.8485

          k = 0.0882-0.0509 0.0675 (  8823 PWs)   bands (ev):

   -31.4361 -31.2238 -12.3757 -11.7341 -11.7226 -11.5281 -11.4836 -11.4558
     2.0461   4.9787   7.9323   9.3052

          k = 0.0882-0.0509 0.2026 (  8809 PWs)   bands (ev):

   -31.4079 -31.2525 -12.2786 -11.6974 -11.6908 -11.6594 -11.5159 -11.4920
     2.4572   4.6773   8.0749   9.3645

          k = 0.0882-0.0509 0.3376 (  8822 PWs)   bands (ev):

   -31.3590 -31.3021 -12.0998 -11.8747 -11.6356 -11.6304 -11.5716 -11.5559
     3.1748   4.0057   8.5816   9.1705

          k = 0.2646 0.4583 0.0675 (  8799 PWs)   bands (ev):

   -31.3333 -31.2609 -12.0931 -12.0408 -11.8671 -11.8474 -11.6609 -11.5440
     4.5862   5.7236   5.9676   7.0201

          k = 0.2646 0.4583 0.2026 (  8784 PWs)   bands (ev):

   -31.3233 -31.2703 -12.2262 -12.1084 -11.9114 -11.6855 -11.6022 -11.5268
     4.8513   5.9043   6.1807   6.7099

          k = 0.2646 0.4583 0.3376 (  8784 PWs)   bands (ev):

   -31.3061 -31.2867 -12.2790 -12.2317 -11.8277 -11.7128 -11.5360 -11.4803
     5.3094   5.8077   6.4448   6.5192

          k = 0.2646 0.6620 0.0675 (  8807 PWs)   bands (ev):

   -31.3125 -31.2753 -12.0840 -12.0184 -11.9183 -11.8283 -11.7166 -11.5597
     5.1090   5.6072   5.7461   6.9442

          k = 0.2646 0.6620 0.2026 (  8800 PWs)   bands (ev):

   -31.3071 -31.2799 -12.2080 -12.1288 -11.9692 -11.6471 -11.6237 -11.5540
     5.3290   5.8606   5.9737   6.6650

          k = 0.2646 0.6620 0.3376 (  8778 PWs)   bands (ev):

   -31.2981 -31.2881 -12.2815 -12.2522 -11.8670 -11.7409 -11.5132 -11.4814
     5.7076   6.1150   6.1961   6.3191

          k = 0.2646-0.3564 0.0675 (  8789 PWs)   bands (ev):

   -31.3573 -31.2480 -12.1583 -11.9842 -11.8778 -11.7852 -11.6055 -11.5170
     3.9886   5.6539   6.3752   7.1602

          k = 0.2646-0.3564 0.2026 (  8785 PWs)   bands (ev):

   -31.3425 -31.2624 -12.2480 -12.0526 -11.8407 -11.7231 -11.5717 -11.5024
     4.2878   5.7219   6.5596   6.8656

          k = 0.2646-0.3564 0.3376 (  8777 PWs)   bands (ev):

   -31.3168 -31.2876 -12.2658 -12.1908 -11.7676 -11.6676 -11.5684 -11.4890
     4.8140   5.4118   6.7596   6.8002

          k = 0.2646-0.1528 0.0675 (  8796 PWs)   bands (ev):

   -31.3962 -31.2332 -12.2638 -11.8876 -11.7863 -11.7120 -11.5249 -11.4808
     3.0154   5.3949   7.3421   7.4881

          k = 0.2646-0.1528 0.2026 (  8799 PWs)   bands (ev):

   -31.3743 -31.2551 -12.2620 -11.9059 -11.7543 -11.7461 -11.5225 -11.4843
     3.3694   5.2567   7.3097   7.4938

          k = 0.2646-0.1528 0.3376 (  8812 PWs)   bands (ev):

   -31.3366 -31.2929 -12.2037 -12.0745 -11.6760 -11.6255 -11.5942 -11.5207
     3.9948   4.7235   7.4258   7.5781

          k = 0.4410 0.7638 0.0675 (  8798 PWs)   bands (ev):

   -31.3212 -31.2689 -12.1293 -11.9805 -11.9126 -11.8457 -11.6986 -11.5299
     5.1764   5.3618   5.7650   6.9725

          k = 0.4410 0.7638 0.2026 (  8787 PWs)   bands (ev):

   -31.3139 -31.2755 -12.2542 -12.1116 -11.9187 -11.6766 -11.6047 -11.5366
     5.3642   5.6440   5.9758   6.6588

          k = 0.4410 0.7638 0.3376 (  8761 PWs)   bands (ev):

   -31.3013 -31.2872 -12.3066 -12.2560 -11.8182 -11.7012 -11.5385 -11.4876
     5.7133   6.0059   6.1690   6.2032

          k = 0.4410-0.2546 0.0675 (  8798 PWs)   bands (ev):

   -31.3441 -31.2549 -12.1665 -11.9901 -11.8652 -11.8433 -11.6464 -11.4843
     4.4555   5.6859   5.8464   7.0801

          k = 0.4410-0.2546 0.2026 (  8788 PWs)   bands (ev):

   -31.3319 -31.2665 -12.2892 -12.0816 -11.7964 -11.7682 -11.5345 -11.5336
     4.7170   5.8383   6.0269   6.7431

          k = 0.4410-0.2546 0.3376 (  8773 PWs)   bands (ev):

   -31.3108 -31.2869 -12.3173 -12.2412 -11.7144 -11.6182 -11.6036 -11.5168
     5.1690   5.6673   6.3227   6.5098

!    total energy              =    -151.49340184 Ry
     Harris-Foulkes estimate   =    -151.49340174 Ry
     estimated scf accuracy    <          8.0E-09 Ry

     The total energy is the sum of the following terms:

     one-electron contribution =     -41.29880530 Ry
     hartree contribution      =      28.00864602 Ry
     xc contribution           =     -23.84537186 Ry
     ewald contribution        =    -114.35787070 Ry

     convergence has been achieved in  10 iterations

     Forces acting on atoms (Ry/au):

     atom    1 type  2   force =     0.00000000    0.00000000   -0.00000000
     atom    2 type  2   force =     0.00000000   -0.00000000    0.00000000
     atom    3 type  1   force =    -0.00000000    0.00000000   -0.00000000
     atom    4 type  1   force =     0.00000000   -0.00000000    0.00000000
     atom    5 type  1   force =    -0.00000000    0.00000000    0.00000000
     atom    6 type  1   force =    -0.00000000    0.00000000    0.00000000

     Total force =     0.000000     Total SCF correction =     0.000000


     entering subroutine stress ...

          total   stress  (Ry/bohr**3)                   (kbar)     P=  220.37
   0.00145782  -0.00000000   0.00000000        214.45     -0.00      0.00
  -0.00000000   0.00145782  -0.00000000         -0.00    214.45     -0.00
  -0.00000000  -0.00000000   0.00157855         -0.00     -0.00    232.21


     number of scf cycles    =   3
     number of bfgs steps    =   2

     enthalpy old            =    -151.0132202284 Ry
     enthalpy new            =    -151.0188458859 Ry

     CASE: enthalpy_new < enthalpy_old

     new trust radius        =       0.0165155046 bohr
     new conv_thr            =       0.0000000100 Ry

     new unit-cell volume =    353.62612 a.u.^3 (    52.40198 Ang^3 )

CELL_PARAMETERS (alat=  7.15200000)
   0.948933181   0.000000000  -0.000000000
  -0.474466591   0.821800242   0.000000000
   0.000000000  -0.000000000   1.239538212

ATOMIC_POSITIONS (crystal)
Ca       0.333333333   0.666666667   0.250000000
Ca       0.666666667   0.333333333   0.750000000
H        0.333333333   0.666666667   0.750000000
H        0.666666667   0.333333333   0.250000000
H        0.000000000   0.000000000  -0.000000000
H       -0.000000000   0.000000000   0.500000000



     Writing output data file CaH2_18GPa-blyp-0200.save
     NEW-OLD atomic charge density approx. for the potential
     NEW k-points:
        k(    1) = (   0.0878179   0.1521051   0.0672293), wk =   0.0370370
        k(    2) = (   0.0878179   0.1521051   0.2016880), wk =   0.0370370
        k(    3) = (   0.0878179   0.1521051   0.3361467), wk =   0.0370370
        k(    4) = (   0.0878179   0.3549119   0.0672293), wk =   0.0740741
        k(    5) = (   0.0878179   0.3549119   0.2016880), wk =   0.0740741
        k(    6) = (   0.0878179   0.3549119   0.3361467), wk =   0.0740741
        k(    7) = (   0.0878179   0.5577187   0.0672293), wk =   0.0740741
        k(    8) = (   0.0878179   0.5577187   0.2016880), wk =   0.0740741
        k(    9) = (   0.0878179   0.5577187   0.3361467), wk =   0.0740741
        k(   10) = (   0.0878179  -0.4563153   0.0672293), wk =   0.0740741
        k(   11) = (   0.0878179  -0.4563153   0.2016880), wk =   0.0740741
        k(   12) = (   0.0878179  -0.4563153   0.3361467), wk =   0.0740741
        k(   13) = (   0.0878179  -0.2535085   0.0672293), wk =   0.0740741
        k(   14) = (   0.0878179  -0.2535085   0.2016880), wk =   0.0740741
        k(   15) = (   0.0878179  -0.2535085   0.3361467), wk =   0.0740741
        k(   16) = (   0.0878179  -0.0507017   0.0672293), wk =   0.0370370
        k(   17) = (   0.0878179  -0.0507017   0.2016880), wk =   0.0370370
        k(   18) = (   0.0878179  -0.0507017   0.3361467), wk =   0.0370370
        k(   19) = (   0.2634537   0.4563153   0.0672293), wk =   0.0370370
        k(   20) = (   0.2634537   0.4563153   0.2016880), wk =   0.0370370
        k(   21) = (   0.2634537   0.4563153   0.3361467), wk =   0.0370370
        k(   22) = (   0.2634537   0.6591221   0.0672293), wk =   0.0740741
        k(   23) = (   0.2634537   0.6591221   0.2016880), wk =   0.0740741
        k(   24) = (   0.2634537   0.6591221   0.3361467), wk =   0.0740741
        k(   25) = (   0.2634537  -0.3549119   0.0672293), wk =   0.0740741
        k(   26) = (   0.2634537  -0.3549119   0.2016880), wk =   0.0740741
        k(   27) = (   0.2634537  -0.3549119   0.3361467), wk =   0.0740741
        k(   28) = (   0.2634537  -0.1521051   0.0672293), wk =   0.0370370
        k(   29) = (   0.2634537  -0.1521051   0.2016880), wk =   0.0370370
        k(   30) = (   0.2634537  -0.1521051   0.3361467), wk =   0.0370370
        k(   31) = (   0.4390896   0.7605255   0.0672293), wk =   0.0370370
        k(   32) = (   0.4390896   0.7605255   0.2016880), wk =   0.0370370
        k(   33) = (   0.4390896   0.7605255   0.3361467), wk =   0.0370370
        k(   34) = (   0.4390896  -0.2535085   0.0672293), wk =   0.0370370
        k(   35) = (   0.4390896  -0.2535085   0.2016880), wk =   0.0370370
        k(   36) = (   0.4390896  -0.2535085   0.3361467), wk =   0.0370370
     extrapolated charge   24.31058, renormalised to   24.00000

     total cpu time spent up to now is     1060.7 secs

     per-process dynamical memory:    52.7 Mb

     Self-consistent Calculation

     iteration #  1     ecut=   120.00 Ry     beta=0.30
     Davidson diagonalization with overlap
     ethr =  1.00E-06,  avg # of iterations =  4.4

     total cpu time spent up to now is     1094.1 secs

     total energy              =    -151.49519403 Ry
     Harris-Foulkes estimate   =    -151.16662226 Ry
     estimated scf accuracy    <       0.00355341 Ry

     iteration #  2     ecut=   120.00 Ry     beta=0.30
     Davidson diagonalization with overlap
     ethr =  1.48E-05,  avg # of iterations =  3.2

     total cpu time spent up to now is     1120.9 secs

     total energy              =    -151.49960744 Ry
     Harris-Foulkes estimate   =    -151.49930119 Ry
     estimated scf accuracy    <       0.00016203 Ry

     iteration #  3     ecut=   120.00 Ry     beta=0.30
     Davidson diagonalization with overlap
     ethr =  6.75E-07,  avg # of iterations =  1.8

     total cpu time spent up to now is     1138.7 secs

     total energy              =    -151.49998979 Ry
     Harris-Foulkes estimate   =    -151.49961514 Ry
     estimated scf accuracy    <       0.00010624 Ry

     iteration #  4     ecut=   120.00 Ry     beta=0.30
     Davidson diagonalization with overlap
     ethr =  4.43E-07,  avg # of iterations =  2.2

     total cpu time spent up to now is     1159.6 secs

     total energy              =    -151.50000730 Ry
     Harris-Foulkes estimate   =    -151.50000032 Ry
     estimated scf accuracy    <       0.00001070 Ry

     iteration #  5     ecut=   120.00 Ry     beta=0.30
     Davidson diagonalization with overlap
     ethr =  4.46E-08,  avg # of iterations =  2.9

     total cpu time spent up to now is     1180.0 secs

     total energy              =    -151.50000339 Ry
     Harris-Foulkes estimate   =    -151.50000942 Ry
     estimated scf accuracy    <       0.00000264 Ry

     iteration #  6     ecut=   120.00 Ry     beta=0.30
     Davidson diagonalization with overlap
     ethr =  1.10E-08,  avg # of iterations =  3.4

     total cpu time spent up to now is     1206.4 secs

     total energy              =    -151.50000954 Ry
     Harris-Foulkes estimate   =    -151.50000471 Ry
     estimated scf accuracy    <       0.00000113 Ry

     iteration #  7     ecut=   120.00 Ry     beta=0.30
     Davidson diagonalization with overlap
     ethr =  4.71E-09,  avg # of iterations =  2.0

     total cpu time spent up to now is     1227.4 secs

     total energy              =    -151.50000970 Ry
     Harris-Foulkes estimate   =    -151.50000966 Ry
     estimated scf accuracy    <       0.00000004 Ry

     iteration #  8     ecut=   120.00 Ry     beta=0.30
     Davidson diagonalization with overlap
     ethr =  1.77E-10,  avg # of iterations =  3.6

     total cpu time spent up to now is     1250.0 secs

     End of self-consistent calculation

          k = 0.0878 0.1521 0.0672 (  8810 PWs)   bands (ev):

   -31.5991 -31.4095 -12.5023 -11.9446 -11.9264 -11.7672 -11.6698 -11.6582
     2.1935   4.9935   7.6491   8.4241

          k = 0.0878 0.1521 0.2017 (  8821 PWs)   bands (ev):

   -31.5738 -31.4352 -12.4305 -11.9279 -11.8930 -11.8770 -11.7039 -11.6643
     2.5845   4.7194   7.6957   8.5113

          k = 0.0878 0.1521 0.3361 (  8822 PWs)   bands (ev):

   -31.5301 -31.4793 -12.2923 -12.1084 -11.8296 -11.8092 -11.7626 -11.7223
     3.2715   4.0736   8.0531   8.4438

          k = 0.0878 0.3549 0.0672 (  8795 PWs)   bands (ev):

   -31.5556 -31.4220 -12.3798 -12.0998 -12.0070 -11.9211 -11.7455 -11.6762
     3.3073   5.4032   6.7340   7.1982

          k = 0.0878 0.3549 0.2017 (  8792 PWs)   bands (ev):

   -31.5376 -31.4398 -12.4181 -12.1441 -11.9580 -11.9232 -11.7230 -11.6776
     3.6345   5.3416   6.8699   6.9890

          k = 0.0878 0.3549 0.3361 (  8800 PWs)   bands (ev):

   -31.5065 -31.4708 -12.3967 -12.2957 -11.8862 -11.8037 -11.7829 -11.6931
     4.2137   4.8865   6.9743   7.0528

          k = 0.0878 0.5577 0.0672 (  8793 PWs)   bands (ev):

   -31.5115 -31.4434 -12.3178 -12.1463 -12.0605 -12.0235 -11.8535 -11.6825
     4.7191   5.3767   5.6224   6.8993

          k = 0.0878 0.5577 0.2017 (  8782 PWs)   bands (ev):

   -31.5021 -31.4522 -12.4409 -12.2630 -12.0201 -11.9039 -11.7502 -11.7125
     4.9534   5.6074   5.7928   6.5523

          k = 0.0878 0.5577 0.3361 (  8761 PWs)   bands (ev):

   -31.4859 -31.4676 -12.4776 -12.4132 -11.9277 -11.8272 -11.7603 -11.6911
     5.3508   5.7604   5.9696   6.1921

          k = 0.0878-0.4563 0.0672 (  8788 PWs)   bands (ev):

   -31.5303 -31.4329 -12.3248 -12.1596 -12.0299 -11.9912 -11.8062 -11.6800
     4.0181   5.5393   6.0391   7.0046

          k = 0.0878-0.4563 0.2017 (  8788 PWs)   bands (ev):

   -31.5170 -31.4458 -12.4277 -12.2241 -11.9973 -11.9167 -11.7365 -11.6988
     4.3022   5.6299   6.2109   6.6976

          k = 0.0878-0.4563 0.3361 (  8779 PWs)   bands (ev):

   -31.4942 -31.4681 -12.4474 -12.3718 -11.9126 -11.8180 -11.7703 -11.6901
     4.8001   5.3623   6.4422   6.5641

          k = 0.0878-0.2535 0.0672 (  8796 PWs)   bands (ev):

   -31.5801 -31.4142 -12.4479 -12.0109 -11.9708 -11.8431 -11.6927 -11.6726
     2.6714   5.1975   7.4345   7.5412

          k = 0.0878-0.2535 0.2017 (  8800 PWs)   bands (ev):

   -31.5579 -31.4365 -12.4208 -12.0361 -11.9163 -11.9111 -11.7122 -11.6629
     3.0352   5.0061   7.3323   7.6667

          k = 0.0878-0.2535 0.3361 (  8820 PWs)   bands (ev):

   -31.5195 -31.4751 -12.3400 -12.2003 -11.8557 -11.8026 -11.7780 -11.7039
     3.6779   4.4297   7.5106   7.7164

          k = 0.0878-0.0507 0.0672 (  8823 PWs)   bands (ev):

   -31.6094 -31.4076 -12.5319 -11.9105 -11.8995 -11.7124 -11.6691 -11.6457
     1.9374   4.8685   7.7753   9.1562

          k = 0.0878-0.0507 0.2017 (  8809 PWs)   bands (ev):

   -31.5825 -31.4349 -12.4381 -11.8752 -11.8688 -11.8405 -11.7002 -11.6785
     2.3430   4.5563   7.9296   9.2142

          k = 0.0878-0.0507 0.3361 (  8822 PWs)   bands (ev):

   -31.5361 -31.4819 -12.2654 -12.0483 -11.8156 -11.8107 -11.7539 -11.7392
     3.0530   3.8795   8.4403   9.0231

          k = 0.2635 0.4563 0.0672 (  8799 PWs)   bands (ev):

   -31.5119 -31.4431 -12.2585 -12.2033 -12.0381 -12.0198 -11.8421 -11.7267
     4.4507   5.5926   5.8436   6.8990

          k = 0.2635 0.4563 0.2017 (  8784 PWs)   bands (ev):

   -31.5023 -31.4520 -12.3852 -12.2700 -12.0803 -11.8646 -11.7826 -11.7126
     4.7150   5.7657   6.0526   6.5894

          k = 0.2635 0.4563 0.3361 (  8784 PWs)   bands (ev):

   -31.4861 -31.4676 -12.4355 -12.3896 -11.9992 -11.8888 -11.7212 -11.6679
     5.1720   5.6664   6.3126   6.3927

          k = 0.2635 0.6591 0.0672 (  8807 PWs)   bands (ev):

   -31.4922 -31.4568 -12.2456 -12.1850 -12.0882 -12.0015 -11.8953 -11.7417
     4.9762   5.4731   5.6166   6.8264

          k = 0.2635 0.6591 0.2017 (  8800 PWs)   bands (ev):

   -31.4870 -31.4612 -12.3672 -12.2905 -12.1351 -11.8275 -11.8036 -11.7386
     5.1971   5.7217   5.8375   6.5447

          k = 0.2635 0.6591 0.3361 (  8778 PWs)   bands (ev):

   -31.4784 -31.4689 -12.4378 -12.4096 -12.0367 -11.9155 -11.6994 -11.6689
     5.5765   5.9735   6.0560   6.1888

          k = 0.2635-0.3549 0.0672 (  8789 PWs)   bands (ev):

   -31.5347 -31.4308 -12.3218 -12.1492 -12.0478 -11.9596 -11.7892 -11.7009
     3.8562   5.5272   6.2523   7.0332

          k = 0.2635-0.3549 0.2017 (  8785 PWs)   bands (ev):

   -31.5205 -31.4445 -12.4067 -12.2162 -12.0128 -11.9004 -11.7535 -11.6893
     4.1537   5.5864   6.4334   6.7427

          k = 0.2635-0.3549 0.3361 (  8777 PWs)   bands (ev):

   -31.4962 -31.4684 -12.4230 -12.3501 -11.9419 -11.8457 -11.7521 -11.6762
     4.6774   5.2724   6.6318   6.6739

          k = 0.2635-0.1521 0.0672 (  8796 PWs)   bands (ev):

   -31.5715 -31.4166 -12.4240 -12.0568 -11.9605 -11.8884 -11.7122 -11.6664
     2.8929   5.2757   7.2143   7.3487

          k = 0.2635-0.1521 0.2017 (  8799 PWs)   bands (ev):

   -31.5507 -31.4375 -12.4211 -12.0756 -11.9300 -11.9218 -11.7065 -11.6720
     3.2436   5.1273   7.1800   7.3639

          k = 0.2635-0.1521 0.3361 (  8812 PWs)   bands (ev):

   -31.5149 -31.4734 -12.3639 -12.2388 -11.8543 -11.8067 -11.7755 -11.7064
     3.8640   4.5893   7.2986   7.4475

          k = 0.4391 0.7605 0.0672 (  8798 PWs)   bands (ev):

   -31.5004 -31.4507 -12.2897 -12.1488 -12.0821 -12.0178 -11.8782 -11.7133
     5.0457   5.2233   5.6415   6.8528

          k = 0.4391 0.7605 0.2017 (  8787 PWs)   bands (ev):

   -31.4934 -31.4570 -12.4110 -12.2739 -12.0871 -11.8562 -11.7856 -11.7216
     5.2353   5.5028   5.8442   6.5356

          k = 0.4391 0.7605 0.3361 (  8761 PWs)   bands (ev):

   -31.4814 -31.4681 -12.4616 -12.4130 -11.9902 -11.8778 -11.7237 -11.6749
     5.5880   5.8697   6.0253   6.0686

          k = 0.4391-0.2535 0.0672 (  8798 PWs)   bands (ev):

   -31.5221 -31.4373 -12.3270 -12.1571 -12.0359 -12.0152 -11.8287 -11.6696
     4.3223   5.5545   5.7267   6.9550

          k = 0.4391-0.2535 0.2017 (  8788 PWs)   bands (ev):

   -31.5105 -31.4484 -12.4449 -12.2446 -11.9701 -11.9442 -11.7203 -11.7171
     4.5839   5.7072   5.8976   6.6171

          k = 0.4391-0.2535 0.3361 (  8773 PWs)   bands (ev):

   -31.4905 -31.4677 -12.4718 -12.3984 -11.8911 -11.7985 -11.7862 -11.7030
     5.0365   5.5358   6.1863   6.3781

!    total energy              =    -151.50000977 Ry
     Harris-Foulkes estimate   =    -151.50000972 Ry
     estimated scf accuracy    <          1.1E-09 Ry

     The total energy is the sum of the following terms:

     one-electron contribution =     -42.03444818 Ry
     hartree contribution      =      28.21908285 Ry
     xc contribution           =     -23.82225608 Ry
     ewald contribution        =    -113.86238836 Ry

     convergence has been achieved in   8 iterations

     Forces acting on atoms (Ry/au):

     atom    1 type  2   force =     0.00000000   -0.00000000   -0.00000000
     atom    2 type  2   force =    -0.00000000    0.00000000    0.00000000
     atom    3 type  1   force =    -0.00000000    0.00000000    0.00000000
     atom    4 type  1   force =    -0.00000000   -0.00000000    0.00000000
     atom    5 type  1   force =     0.00000000   -0.00000000   -0.00000000
     atom    6 type  1   force =     0.00000000    0.00000000    0.00000000

     Total force =     0.000000     Total SCF correction =     0.000000


     entering subroutine stress ...

          total   stress  (Ry/bohr**3)                   (kbar)     P=  204.30
   0.00134163   0.00000000  -0.00000000        197.36      0.00     -0.00
   0.00000000   0.00134163  -0.00000000          0.00    197.36     -0.00
   0.00000000   0.00000000   0.00148308          0.00      0.00    218.17


     number of scf cycles    =   4
     number of bfgs steps    =   3

     enthalpy old            =    -151.0188458859 Ry
     enthalpy new            =    -151.0192293888 Ry

     CASE: enthalpy_new < enthalpy_old

     new trust radius        =       0.0174050496 bohr
     new conv_thr            =       0.0000000100 Ry

     new unit-cell volume =    355.12727 a.u.^3 (    52.62443 Ang^3 )

CELL_PARAMETERS (alat=  7.15200000)
   0.948752397   0.000000000  -0.000000000
  -0.474376199   0.821643678   0.000000000
   0.000000000  -0.000000000   1.245274528

ATOMIC_POSITIONS (crystal)
Ca       0.333333333   0.666666667   0.250000000
Ca       0.666666667   0.333333333   0.750000000
H        0.333333333   0.666666667   0.750000000
H        0.666666667   0.333333333   0.250000000
H        0.000000000   0.000000000  -0.000000000
H       -0.000000000   0.000000000   0.500000000



     Writing output data file CaH2_18GPa-blyp-0200.save
     NEW-OLD atomic charge density approx. for the potential
     NEW k-points:
        k(    1) = (   0.0878346   0.1521341   0.0669196), wk =   0.0370370
        k(    2) = (   0.0878346   0.1521341   0.2007589), wk =   0.0370370
        k(    3) = (   0.0878346   0.1521341   0.3345982), wk =   0.0370370
        k(    4) = (   0.0878346   0.3549795   0.0669196), wk =   0.0740741
        k(    5) = (   0.0878346   0.3549795   0.2007589), wk =   0.0740741
        k(    6) = (   0.0878346   0.3549795   0.3345982), wk =   0.0740741
        k(    7) = (   0.0878346   0.5578249   0.0669196), wk =   0.0740741
        k(    8) = (   0.0878346   0.5578249   0.2007589), wk =   0.0740741
        k(    9) = (   0.0878346   0.5578249   0.3345982), wk =   0.0740741
        k(   10) = (   0.0878346  -0.4564022   0.0669196), wk =   0.0740741
        k(   11) = (   0.0878346  -0.4564022   0.2007589), wk =   0.0740741
        k(   12) = (   0.0878346  -0.4564022   0.3345982), wk =   0.0740741
        k(   13) = (   0.0878346  -0.2535568   0.0669196), wk =   0.0740741
        k(   14) = (   0.0878346  -0.2535568   0.2007589), wk =   0.0740741
        k(   15) = (   0.0878346  -0.2535568   0.3345982), wk =   0.0740741
        k(   16) = (   0.0878346  -0.0507114   0.0669196), wk =   0.0370370
        k(   17) = (   0.0878346  -0.0507114   0.2007589), wk =   0.0370370
        k(   18) = (   0.0878346  -0.0507114   0.3345982), wk =   0.0370370
        k(   19) = (   0.2635039   0.4564022   0.0669196), wk =   0.0370370
        k(   20) = (   0.2635039   0.4564022   0.2007589), wk =   0.0370370
        k(   21) = (   0.2635039   0.4564022   0.3345982), wk =   0.0370370
        k(   22) = (   0.2635039   0.6592477   0.0669196), wk =   0.0740741
        k(   23) = (   0.2635039   0.6592477   0.2007589), wk =   0.0740741
        k(   24) = (   0.2635039   0.6592477   0.3345982), wk =   0.0740741
        k(   25) = (   0.2635039  -0.3549795   0.0669196), wk =   0.0740741
        k(   26) = (   0.2635039  -0.3549795   0.2007589), wk =   0.0740741
        k(   27) = (   0.2635039  -0.3549795   0.3345982), wk =   0.0740741
        k(   28) = (   0.2635039  -0.1521341   0.0669196), wk =   0.0370370
        k(   29) = (   0.2635039  -0.1521341   0.2007589), wk =   0.0370370
        k(   30) = (   0.2635039  -0.1521341   0.3345982), wk =   0.0370370
        k(   31) = (   0.4391732   0.7606704   0.0669196), wk =   0.0370370
        k(   32) = (   0.4391732   0.7606704   0.2007589), wk =   0.0370370
        k(   33) = (   0.4391732   0.7606704   0.3345982), wk =   0.0370370
        k(   34) = (   0.4391732  -0.2535568   0.0669196), wk =   0.0370370
        k(   35) = (   0.4391732  -0.2535568   0.2007589), wk =   0.0370370
        k(   36) = (   0.4391732  -0.2535568   0.3345982), wk =   0.0370370
     extrapolated charge   24.10140, renormalised to   24.00000

     total cpu time spent up to now is     1374.6 secs

     per-process dynamical memory:    52.7 Mb

     Self-consistent Calculation

     iteration #  1     ecut=   120.00 Ry     beta=0.30
     Davidson diagonalization with overlap
     ethr =  1.00E-06,  avg # of iterations =  4.1

     total cpu time spent up to now is     1410.0 secs

     total energy              =    -151.50164067 Ry
     Harris-Foulkes estimate   =    -151.39310379 Ry
     estimated scf accuracy    <       0.00039317 Ry

     iteration #  2     ecut=   120.00 Ry     beta=0.30
     Davidson diagonalization with overlap
     ethr =  1.64E-06,  avg # of iterations =  3.4

     total cpu time spent up to now is     1437.0 secs

     total energy              =    -151.50213486 Ry
     Harris-Foulkes estimate   =    -151.50207646 Ry
     estimated scf accuracy    <       0.00001844 Ry

     iteration #  3     ecut=   120.00 Ry     beta=0.30
     Davidson diagonalization with overlap
     ethr =  7.68E-08,  avg # of iterations =  1.8

     total cpu time spent up to now is     1454.8 secs

     total energy              =    -151.50220533 Ry
     Harris-Foulkes estimate   =    -151.50213570 Ry
     estimated scf accuracy    <       0.00001217 Ry

     iteration #  4     ecut=   120.00 Ry     beta=0.30
     Davidson diagonalization with overlap
     ethr =  5.07E-08,  avg # of iterations =  2.7

     total cpu time spent up to now is     1479.6 secs

     total energy              =    -151.50220843 Ry
     Harris-Foulkes estimate   =    -151.50220735 Ry
     estimated scf accuracy    <       0.00000018 Ry

     iteration #  5     ecut=   120.00 Ry     beta=0.30
     Davidson diagonalization with overlap
     ethr =  7.69E-10,  avg # of iterations =  3.9

     total cpu time spent up to now is     1502.2 secs

     total energy              =    -151.50220860 Ry
     Harris-Foulkes estimate   =    -151.50220852 Ry
     estimated scf accuracy    <       0.00000010 Ry

     iteration #  6     ecut=   120.00 Ry     beta=0.30
     Davidson diagonalization with overlap
     ethr =  4.35E-10,  avg # of iterations =  2.8

     total cpu time spent up to now is     1527.0 secs

     total energy              =    -151.50220889 Ry
     Harris-Foulkes estimate   =    -151.50220862 Ry
     estimated scf accuracy    <       0.00000003 Ry

     iteration #  7     ecut=   120.00 Ry     beta=0.30
     Davidson diagonalization with overlap
     ethr =  1.38E-10,  avg # of iterations =  2.0

     total cpu time spent up to now is     1548.8 secs

     End of self-consistent calculation

          k = 0.0878 0.1521 0.0669 (  8810 PWs)   bands (ev):

   -31.6495 -31.4651 -12.5483 -11.9932 -11.9744 -11.8216 -11.7249 -11.7166
     2.1587   4.9613   7.5686   8.3975

          k = 0.0878 0.1521 0.2008 (  8821 PWs)   bands (ev):

   -31.6249 -31.4901 -12.4767 -11.9791 -11.9433 -11.9270 -11.7580 -11.7216
     2.5450   4.6747   7.6329   8.4774

          k = 0.0878 0.1521 0.3346 (  8822 PWs)   bands (ev):

   -31.5824 -31.5330 -12.3395 -12.1577 -11.8802 -11.8620 -11.8150 -11.7778
     3.2252   4.0232   8.0018   8.3993

          k = 0.0878 0.3550 0.0669 (  8795 PWs)   bands (ev):

   -31.6068 -31.4768 -12.4268 -12.1487 -12.0557 -11.9732 -11.8028 -11.7321
     3.2722   5.3733   6.7067   7.1269

          k = 0.0878 0.3550 0.2008 (  8792 PWs)   bands (ev):

   -31.5892 -31.4942 -12.4628 -12.1929 -12.0077 -11.9754 -11.7779 -11.7362
     3.5954   5.2992   6.8315   6.9390

          k = 0.0878 0.3550 0.3346 (  8800 PWs)   bands (ev):

   -31.5590 -31.5243 -12.4409 -12.3414 -11.9367 -11.8578 -11.8380 -11.7516
     4.1685   4.8369   6.9301   7.0116

          k = 0.0878 0.5578 0.0669 (  8793 PWs)   bands (ev):

   -31.5635 -31.4973 -12.3647 -12.1965 -12.1127 -12.0713 -11.9095 -11.7389
     4.6857   5.3447   5.5954   6.8332

          k = 0.0878 0.5578 0.2008 (  8782 PWs)   bands (ev):

   -31.5544 -31.5059 -12.4849 -12.3104 -12.0689 -11.9583 -11.8071 -11.7696
     4.9167   5.5710   5.7574   6.4944

          k = 0.0878 0.5578 0.3346 (  8761 PWs)   bands (ev):

   -31.5387 -31.5209 -12.5206 -12.4574 -11.9781 -11.8802 -11.8183 -11.7506
     5.3088   5.7158   5.9248   6.1453

          k = 0.0878-0.4564 0.0669 (  8788 PWs)   bands (ev):

   -31.5819 -31.4873 -12.3719 -12.2090 -12.0801 -12.0414 -11.8628 -11.7362
     3.9834   5.5102   6.0107   6.9367

          k = 0.0878-0.4564 0.2008 (  8788 PWs)   bands (ev):

   -31.5690 -31.4997 -12.4719 -12.2720 -12.0464 -11.9703 -11.7923 -11.7569
     4.2638   5.5904   6.1765   6.6425

          k = 0.0878-0.4564 0.3346 (  8779 PWs)   bands (ev):

   -31.5468 -31.5215 -12.4907 -12.4165 -11.9630 -11.8712 -11.8276 -11.7493
     4.7560   5.3138   6.4006   6.5198

          k = 0.0878-0.2536 0.0669 (  8796 PWs)   bands (ev):

   -31.6308 -31.4694 -12.4944 -12.0597 -12.0189 -11.8964 -11.7507 -11.7281
     2.6363   5.1664   7.3585   7.5145

          k = 0.0878-0.2536 0.2008 (  8800 PWs)   bands (ev):

   -31.6092 -31.4912 -12.4663 -12.0861 -11.9679 -11.9603 -11.7666 -11.7212
     2.9958   4.9622   7.2741   7.6339

          k = 0.0878-0.2536 0.3346 (  8820 PWs)   bands (ev):

   -31.5719 -31.5287 -12.3856 -12.2476 -11.9063 -11.8575 -11.8305 -11.7612
     3.6320   4.3796   7.4636   7.6749

          k = 0.0878-0.0507 0.0669 (  8823 PWs)   bands (ev):

   -31.6596 -31.4633 -12.5776 -11.9589 -11.9477 -11.7675 -11.7239 -11.7041
     1.9027   4.8356   7.6921   9.1296

          k = 0.0878-0.0507 0.2008 (  8809 PWs)   bands (ev):

   -31.6335 -31.4899 -12.4846 -11.9249 -11.9179 -11.8945 -11.7541 -11.7344
     2.3035   4.5113   7.8630   9.1784

          k = 0.0878-0.0507 0.3346 (  8822 PWs)   bands (ev):

   -31.5883 -31.5357 -12.3138 -12.0995 -11.8662 -11.8622 -11.8062 -11.7930
     3.0066   3.8289   8.3842   8.9738

          k = 0.2635 0.4564 0.0669 (  8799 PWs)   bands (ev):

   -31.5639 -31.4970 -12.3065 -12.2499 -12.0899 -12.0704 -11.8977 -11.7835
     4.4167   5.5634   5.8154   6.8343

          k = 0.2635 0.4564 0.2008 (  8784 PWs)   bands (ev):

   -31.5546 -31.5057 -12.4299 -12.3168 -12.1280 -11.9206 -11.8377 -11.7712
     4.6773   5.7278   6.0190   6.5334

          k = 0.2635 0.4564 0.3346 (  8784 PWs)   bands (ev):

   -31.5388 -31.5209 -12.4787 -12.4337 -12.0491 -11.9417 -11.7797 -11.7275
     5.1283   5.6178   6.2714   6.3485

          k = 0.2635 0.6592 0.0669 (  8807 PWs)   bands (ev):

   -31.5446 -31.5102 -12.2923 -12.2329 -12.1384 -12.0540 -11.9502 -11.7988
     4.9440   5.4426   5.5878   6.7637

          k = 0.2635 0.6592 0.2008 (  8800 PWs)   bands (ev):

   -31.5397 -31.5145 -12.4121 -12.3368 -12.1824 -11.8841 -11.8593 -11.7968
     5.1615   5.6855   5.8019   6.4880

          k = 0.2635 0.6592 0.3346 (  8778 PWs)   bands (ev):

   -31.5313 -31.5220 -12.4809 -12.4531 -12.0864 -11.9683 -11.7586 -11.7287
     5.5350   5.9263   6.0128   6.1432

          k = 0.2635-0.3550 0.0669 (  8789 PWs)   bands (ev):

   -31.5862 -31.4852 -12.3692 -12.1969 -12.0983 -12.0109 -11.8457 -11.7573
     3.8213   5.4979   6.2248   6.9652

          k = 0.2635-0.3550 0.2008 (  8785 PWs)   bands (ev):

   -31.5725 -31.4985 -12.4512 -12.2638 -12.0612 -11.9550 -11.8085 -11.7480
     4.1151   5.5459   6.4002   6.6880

          k = 0.2635-0.3550 0.3346 (  8777 PWs)   bands (ev):

   -31.5488 -31.5218 -12.4665 -12.3949 -11.9921 -11.8988 -11.8094 -11.7353
     4.6327   5.2232   6.5904   6.6307

          k = 0.2635-0.1521 0.0669 (  8796 PWs)   bands (ev):

   -31.6224 -31.4717 -12.4707 -12.1057 -12.0080 -11.9420 -11.7700 -11.7220
     2.8577   5.2451   7.1860   7.2756

          k = 0.2635-0.1521 0.2008 (  8799 PWs)   bands (ev):

   -31.6021 -31.4920 -12.4662 -12.1254 -11.9824 -11.9704 -11.7610 -11.7307
     3.2042   5.0840   7.1240   7.3301

          k = 0.2635-0.1521 0.3346 (  8812 PWs)   bands (ev):

   -31.5673 -31.5270 -12.4088 -12.2854 -11.9047 -11.8623 -11.8280 -11.7643
     3.8184   4.5394   7.2527   7.4064

          k = 0.4392 0.7607 0.0669 (  8798 PWs)   bands (ev):

   -31.5527 -31.5043 -12.3367 -12.1972 -12.1334 -12.0683 -11.9338 -11.7700
     5.0137   5.1911   5.6138   6.7886

          k = 0.4392 0.7607 0.2008 (  8787 PWs)   bands (ev):

   -31.5459 -31.5104 -12.4555 -12.3208 -12.1350 -11.9118 -11.8417 -11.7795
     5.2004   5.4650   5.8094   6.4779

          k = 0.4392 0.7607 0.3346 (  8761 PWs)   bands (ev):

   -31.5343 -31.5213 -12.5046 -12.4569 -12.0402 -11.9307 -11.7823 -11.7345
     5.5477   5.8258   5.9811   6.0192

          k = 0.4392-0.2536 0.0669 (  8798 PWs)   bands (ev):

   -31.5739 -31.4914 -12.3739 -12.2077 -12.0886 -12.0621 -11.8850 -11.7259
     4.2881   5.5246   5.6983   6.8876

          k = 0.4392-0.2536 0.2008 (  8788 PWs)   bands (ev):

   -31.5626 -31.5022 -12.4890 -12.2924 -12.0181 -11.9991 -11.7794 -11.7721
     4.5461   5.6695   5.8625   6.5604

          k = 0.4392-0.2536 0.3346 (  8773 PWs)   bands (ev):

   -31.5432 -31.5211 -12.5149 -12.4429 -11.9413 -11.8512 -11.8442 -11.7627
     4.9933   5.4886   6.1438   6.3324

!    total energy              =    -151.50220895 Ry
     Harris-Foulkes estimate   =    -151.50220890 Ry
     estimated scf accuracy    <          3.5E-10 Ry

     The total energy is the sum of the following terms:

     one-electron contribution =     -42.26183241 Ry
     hartree contribution      =      28.28560191 Ry
     xc contribution           =     -23.81609885 Ry
     ewald contribution        =    -113.70987960 Ry

     convergence has been achieved in   7 iterations

     Forces acting on atoms (Ry/au):

     atom    1 type  2   force =    -0.00000000   -0.00000000    0.00000000
     atom    2 type  2   force =     0.00000000    0.00000000   -0.00000000
     atom    3 type  1   force =     0.00000000   -0.00000000   -0.00000000
     atom    4 type  1   force =    -0.00000000    0.00000000    0.00000000
     atom    5 type  1   force =     0.00000000    0.00000000    0.00000000
     atom    6 type  1   force =     0.00000000    0.00000000    0.00000000

     Total force =     0.000000     Total SCF correction =     0.000000


     entering subroutine stress ...

          total   stress  (Ry/bohr**3)                   (kbar)     P=  200.16
   0.00132827   0.00000000   0.00000000        195.40      0.00      0.00
   0.00000000   0.00132827   0.00000000          0.00    195.40      0.00
   0.00000000   0.00000000   0.00142536          0.00      0.00    209.68


     number of scf cycles    =   5
     number of bfgs steps    =   4

     enthalpy old            =    -151.0192293888 Ry
     enthalpy new            =    -151.0193876424 Ry

     CASE: enthalpy_new < enthalpy_old

     new trust radius        =       0.0239557847 bohr
     new conv_thr            =       0.0000000100 Ry

     new unit-cell volume =    355.99752 a.u.^3 (    52.75339 Ang^3 )

CELL_PARAMETERS (alat=  7.15200000)
   0.946909609   0.000000000  -0.000000000
  -0.473454804   0.820047776   0.000000000
   0.000000000   0.000000000   1.253189575

ATOMIC_POSITIONS (crystal)
Ca       0.333333333   0.666666667   0.250000000
Ca       0.666666667   0.333333333   0.750000000
H        0.333333333   0.666666667   0.750000000
H        0.666666667   0.333333333   0.250000000
H        0.000000000   0.000000000   0.000000000
H        0.000000000   0.000000000   0.500000000



     Writing output data file CaH2_18GPa-blyp-0200.save
     NEW-OLD atomic charge density approx. for the potential
     NEW k-points:
        k(    1) = (   0.0880056   0.1524301   0.0664970), wk =   0.0370370
        k(    2) = (   0.0880056   0.1524301   0.1994910), wk =   0.0370370
        k(    3) = (   0.0880056   0.1524301   0.3324849), wk =   0.0370370
        k(    4) = (   0.0880056   0.3556703   0.0664970), wk =   0.0740741
        k(    5) = (   0.0880056   0.3556703   0.1994910), wk =   0.0740741
        k(    6) = (   0.0880056   0.3556703   0.3324849), wk =   0.0740741
        k(    7) = (   0.0880056   0.5589105   0.0664970), wk =   0.0740741
        k(    8) = (   0.0880056   0.5589105   0.1994910), wk =   0.0740741
        k(    9) = (   0.0880056   0.5589105   0.3324849), wk =   0.0740741
        k(   10) = (   0.0880056  -0.4572904   0.0664970), wk =   0.0740741
        k(   11) = (   0.0880056  -0.4572904   0.1994910), wk =   0.0740741
        k(   12) = (   0.0880056  -0.4572904   0.3324849), wk =   0.0740741
        k(   13) = (   0.0880056  -0.2540502   0.0664970), wk =   0.0740741
        k(   14) = (   0.0880056  -0.2540502   0.1994910), wk =   0.0740741
        k(   15) = (   0.0880056  -0.2540502   0.3324849), wk =   0.0740741
        k(   16) = (   0.0880056  -0.0508100   0.0664970), wk =   0.0370370
        k(   17) = (   0.0880056  -0.0508100   0.1994910), wk =   0.0370370
        k(   18) = (   0.0880056  -0.0508100   0.3324849), wk =   0.0370370
        k(   19) = (   0.2640168   0.4572904   0.0664970), wk =   0.0370370
        k(   20) = (   0.2640168   0.4572904   0.1994910), wk =   0.0370370
        k(   21) = (   0.2640168   0.4572904   0.3324849), wk =   0.0370370
        k(   22) = (   0.2640168   0.6605306   0.0664970), wk =   0.0740741
        k(   23) = (   0.2640168   0.6605306   0.1994910), wk =   0.0740741
        k(   24) = (   0.2640168   0.6605306   0.3324849), wk =   0.0740741
        k(   25) = (   0.2640168  -0.3556703   0.0664970), wk =   0.0740741
        k(   26) = (   0.2640168  -0.3556703   0.1994910), wk =   0.0740741
        k(   27) = (   0.2640168  -0.3556703   0.3324849), wk =   0.0740741
        k(   28) = (   0.2640168  -0.1524301   0.0664970), wk =   0.0370370
[...]
     number of atomic types    =            2
     number of electrons       =        24.00
     number of Kohn-Sham states=           12
     kinetic-energy cutoff     =     120.0000  Ry
     charge density cutoff     =     480.0000  Ry
     convergence threshold     =      1.0E-08
     mixing beta               =       0.3000
     number of iterations used =           16  local-TF  mixing
     Exchange-correlation      = BLYP ( 1 3 1 3 0)
     EXX-fraction              =        0.00

     celldm(1)=   7.152000  celldm(2)=   0.000000  celldm(3)=   1.250400
     celldm(4)=   0.000000  celldm(5)=   0.000000  celldm(6)=   0.000000

     crystal axes: (cart. coord. in units of alat)
               a(1) = (   0.946315   0.000000  -0.000000 )  
               a(2) = (  -0.473158   0.819533  -0.000000 )  
               a(3) = (   0.000000   0.000000   1.253954 )  

     reciprocal axes: (cart. coord. in units 2 pi/alat)
               b(1) = (  1.056731  0.610104 -0.000000 )  
               b(2) = ( -0.000000  1.220207 -0.000000 )  
               b(3) = (  0.000000  0.000000  0.797478 )  


     PseudoPot. # 1 for H  read from file:
     /home/ilia/espresso/pseudo/H.blyp-vbc.UPF
     MD5 check sum: 64d25ad537c4b939b17faee1147b797b
     Pseudo is Norm-conserving, Zval =  1.0
     Generated by new atomic code, or converted to UPF format
     Using radial grid of  243 points,  0 beta functions with: 

     PseudoPot. # 2 for Ca read from file:
     /home/ilia/espresso/pseudo/Ca.blyp-sp-hgh.UPF
     MD5 check sum: 357a6b692114ea82b84239caae8ecfc0
     Pseudo is Norm-conserving, Zval = 10.0
     Generated in analytical, separable form
     Using radial grid of 1169 points,  5 beta functions with: 
                l(1) =   0
                l(2) =   0
                l(3) =   1
                l(4) =   1
                l(5) =   2

     atomic species   valence    mass     pseudopotential
        H              1.00     1.00700     H ( 1.00)
        Ca            10.00    40.07800     Ca( 1.00)

     24 Sym. Ops., with inversion, found (12 have fractional translation)



   Cartesian axes

     site n.     atom                  positions (alat units)
         1           Ca  tau(   1) = (   0.0000000   0.5463552   0.3134884  )
         2           Ca  tau(   2) = (   0.4731575   0.2731776   0.9404653  )
         3           H   tau(   3) = (   0.0000000   0.5463552   0.9404653  )
         4           H   tau(   4) = (   0.4731575   0.2731776   0.3134884  )
         5           H   tau(   5) = (   0.0000000   0.0000000   0.0000000  )
         6           H   tau(   6) = (   0.0000000   0.0000000   0.6269769  )

     number of k points=    36
                       cart. coord. in units 2pi/alat
        k(    1) = (   0.0880609   0.1525259   0.0664565), wk =   0.0370370
        k(    2) = (   0.0880609   0.1525259   0.1993694), wk =   0.0370370
        k(    3) = (   0.0880609   0.1525259   0.3322823), wk =   0.0370370
        k(    4) = (   0.0880609   0.3558938   0.0664565), wk =   0.0740741
        k(    5) = (   0.0880609   0.3558938   0.1993694), wk =   0.0740741
        k(    6) = (   0.0880609   0.3558938   0.3322823), wk =   0.0740741
        k(    7) = (   0.0880609   0.5592617   0.0664565), wk =   0.0740741
        k(    8) = (   0.0880609   0.5592617   0.1993694), wk =   0.0740741
        k(    9) = (   0.0880609   0.5592617   0.3322823), wk =   0.0740741
        k(   10) = (   0.0880609  -0.4575778   0.0664565), wk =   0.0740741
        k(   11) = (   0.0880609  -0.4575778   0.1993694), wk =   0.0740741
        k(   12) = (   0.0880609  -0.4575778   0.3322823), wk =   0.0740741
        k(   13) = (   0.0880609  -0.2542099   0.0664565), wk =   0.0740741
        k(   14) = (   0.0880609  -0.2542099   0.1993694), wk =   0.0740741
        k(   15) = (   0.0880609  -0.2542099   0.3322823), wk =   0.0740741
        k(   16) = (   0.0880609  -0.0508420   0.0664565), wk =   0.0370370
        k(   17) = (   0.0880609  -0.0508420   0.1993694), wk =   0.0370370
        k(   18) = (   0.0880609  -0.0508420   0.3322823), wk =   0.0370370
        k(   19) = (   0.2641826   0.4575778   0.0664565), wk =   0.0370370
        k(   20) = (   0.2641826   0.4575778   0.1993694), wk =   0.0370370
        k(   21) = (   0.2641826   0.4575778   0.3322823), wk =   0.0370370
        k(   22) = (   0.2641826   0.6609456   0.0664565), wk =   0.0740741
        k(   23) = (   0.2641826   0.6609456   0.1993694), wk =   0.0740741
        k(   24) = (   0.2641826   0.6609456   0.3322823), wk =   0.0740741
        k(   25) = (   0.2641826  -0.3558938   0.0664565), wk =   0.0740741
        k(   26) = (   0.2641826  -0.3558938   0.1993694), wk =   0.0740741
        k(   27) = (   0.2641826  -0.3558938   0.3322823), wk =   0.0740741
        k(   28) = (   0.2641826  -0.1525259   0.0664565), wk =   0.0370370
        k(   29) = (   0.2641826  -0.1525259   0.1993694), wk =   0.0370370
        k(   30) = (   0.2641826  -0.1525259   0.3322823), wk =   0.0370370
        k(   31) = (   0.4403044   0.7626296   0.0664565), wk =   0.0370370
        k(   32) = (   0.4403044   0.7626296   0.1993694), wk =   0.0370370
        k(   33) = (   0.4403044   0.7626296   0.3322823), wk =   0.0370370
        k(   34) = (   0.4403044  -0.2542099   0.0664565), wk =   0.0370370
        k(   35) = (   0.4403044  -0.2542099   0.1993694), wk =   0.0370370
        k(   36) = (   0.4403044  -0.2542099   0.3322823), wk =   0.0370370

     Dense  grid:    63213 G-vectors     FFT dimensions: (  48,  48,  64)

     Largest allocated arrays     est. size (Mb)     dimensions
        Kohn-Sham Wavefunctions         1.45 Mb     (   7918,   12)
        NL pseudopotentials             3.14 Mb     (   7918,   26)
        Each V/rho on FFT grid          2.25 Mb     ( 147456)
        Each G-vector array             0.48 Mb     (  63213)
        G-vector shells                 0.02 Mb     (   2808)
     Largest temporary arrays     est. size (Mb)     dimensions
        Auxiliary wavefunctions         5.80 Mb     (   7918,   48)
        Each subspace H/S matrix        0.04 Mb     (  48,  48)
        Each <psi_i|beta_j> matrix      0.00 Mb     (     26,   12)
        Arrays for rho mixing          36.00 Mb     ( 147456,  16)

     Initial potential from superposition of free atoms

     starting charge   23.98928, renormalised to   24.00000
     Starting wfc are   30 randomized atomic wfcs

     Writing output data file CaH2_18GPa-blyp-0200.save

     total cpu time spent up to now is     2181.7 secs

     per-process dynamical memory:    46.0 Mb

     Self-consistent Calculation

     iteration #  1     ecut=   120.00 Ry     beta=0.30
     Davidson diagonalization with overlap
     ethr =  1.00E-06,  avg # of iterations =  8.2

     total cpu time spent up to now is     2229.4 secs

     total energy              =    -151.53959541 Ry
     Harris-Foulkes estimate   =    -151.57169772 Ry
     estimated scf accuracy    <       0.27937549 Ry

     iteration #  2     ecut=   120.00 Ry     beta=0.30
     Davidson diagonalization with overlap
     ethr =  1.16E-03,  avg # of iterations =  1.0

     total cpu time spent up to now is     2244.9 secs

     total energy              =    -151.47664360 Ry
     Harris-Foulkes estimate   =    -151.54093274 Ry
     estimated scf accuracy    <       0.16250034 Ry

     iteration #  3     ecut=   120.00 Ry     beta=0.30
     Davidson diagonalization with overlap
     ethr =  6.77E-04,  avg # of iterations =  3.0

     total cpu time spent up to now is     2263.5 secs

     total energy              =    -151.50042257 Ry
     Harris-Foulkes estimate   =    -151.50094171 Ry
     estimated scf accuracy    <       0.00316668 Ry

     iteration #  4     ecut=   120.00 Ry     beta=0.30
     Davidson diagonalization with overlap
     ethr =  1.32E-05,  avg # of iterations =  4.0

     total cpu time spent up to now is     2283.9 secs

     total energy              =    -151.50188119 Ry
     Harris-Foulkes estimate   =    -151.50177750 Ry
     estimated scf accuracy    <       0.00099022 Ry

     iteration #  5     ecut=   120.00 Ry     beta=0.30
     Davidson diagonalization with overlap
     ethr =  4.13E-06,  avg # of iterations =  2.7

     total cpu time spent up to now is     2302.0 secs

     total energy              =    -151.50203808 Ry
     Harris-Foulkes estimate   =    -151.50207764 Ry
     estimated scf accuracy    <       0.00010055 Ry

     iteration #  6     ecut=   120.00 Ry     beta=0.30
     Davidson diagonalization with overlap
     ethr =  4.19E-07,  avg # of iterations =  3.0

     total cpu time spent up to now is     2320.4 secs

     total energy              =    -151.50206333 Ry
     Harris-Foulkes estimate   =    -151.50206361 Ry
     estimated scf accuracy    <       0.00001041 Ry

     iteration #  7     ecut=   120.00 Ry     beta=0.30
     Davidson diagonalization with overlap
     ethr =  4.34E-08,  avg # of iterations =  3.3

     total cpu time spent up to now is     2342.3 secs

     total energy              =    -151.50206571 Ry
     Harris-Foulkes estimate   =    -151.50206582 Ry
     estimated scf accuracy    <       0.00000146 Ry

     iteration #  8     ecut=   120.00 Ry     beta=0.30
     Davidson diagonalization with overlap
     ethr =  6.10E-09,  avg # of iterations =  2.9

     total cpu time spent up to now is     2361.2 secs

     total energy              =    -151.50206586 Ry
     Harris-Foulkes estimate   =    -151.50206591 Ry
     estimated scf accuracy    <       0.00000022 Ry

     iteration #  9     ecut=   120.00 Ry     beta=0.30
     Davidson diagonalization with overlap
     ethr =  9.15E-10,  avg # of iterations =  3.5

     total cpu time spent up to now is     2381.2 secs

     total energy              =    -151.50206590 Ry
     Harris-Foulkes estimate   =    -151.50206591 Ry
     estimated scf accuracy    <       0.00000004 Ry

     iteration # 10     ecut=   120.00 Ry     beta=0.30
     Davidson diagonalization with overlap
     ethr =  1.84E-10,  avg # of iterations =  2.1

     total cpu time spent up to now is     2398.7 secs

     End of self-consistent calculation

          k = 0.0881 0.1525 0.0665 (  7916 PWs)   bands (ev):

   -31.6583 -31.4794 -12.5597 -12.0014 -11.9810 -11.8376 -11.7405 -11.7367
     2.1466   4.9542   7.4859   8.4144

          k = 0.0881 0.1525 0.1994 (  7895 PWs)   bands (ev):

   -31.6344 -31.5035 -12.4873 -11.9919 -11.9537 -11.9359 -11.7724 -11.7406
     2.5263   4.6485   7.5789   8.4805

          k = 0.0881 0.1525 0.3323 (  7875 PWs)   bands (ev):

   -31.5930 -31.5450 -12.3499 -12.1694 -11.8900 -11.8757 -11.8272 -11.7946
     3.1966   3.9884   7.9679   8.3807

          k = 0.0881 0.3559 0.0665 (  7898 PWs)   bands (ev):

   -31.6158 -31.4897 -12.4379 -12.1613 -12.0658 -11.9875 -11.8226 -11.7495
     3.2666   5.3757   6.7152   7.0535

          k = 0.0881 0.3559 0.1994 (  7899 PWs)   bands (ev):

   -31.5988 -31.5066 -12.4711 -12.2052 -12.0190 -11.9894 -11.7943 -11.7578
     3.5833   5.2815   6.8135   6.9104

          k = 0.0881 0.3559 0.3323 (  7888 PWs)   bands (ev):

   -31.5695 -31.5357 -12.4481 -12.3502 -11.9477 -11.8748 -11.8547 -11.7736
     4.1463   4.8075   6.9061   6.9953

          k = 0.0881 0.5593 0.0665 (  7902 PWs)   bands (ev):

   -31.5732 -31.5089 -12.3768 -12.2109 -12.1303 -12.0792 -11.9292 -11.7574
     4.6869   5.3500   5.6009   6.7648

          k = 0.0881 0.5593 0.1994 (  7908 PWs)   bands (ev):

   -31.5643 -31.5173 -12.4935 -12.3224 -12.0795 -11.9759 -11.8280 -11.7892
     4.9107   5.5669   5.7518   6.4434

          k = 0.0881 0.5593 0.3323 (  7895 PWs)   bands (ev):

   -31.5491 -31.5319 -12.5277 -12.4657 -11.9897 -11.8950 -11.8406 -11.7744
     5.2912   5.6896   5.9105   6.1207

          k = 0.0881-0.4576 0.0665 (  7898 PWs)   bands (ev):

   -31.5912 -31.4994 -12.3829 -12.2234 -12.0942 -12.0526 -11.8823 -11.7544
     3.9815   5.5162   6.0163   6.8665

          k = 0.0881-0.4576 0.1994 (  7892 PWs)   bands (ev):

   -31.5787 -31.5115 -12.4799 -12.2843 -12.0572 -11.9871 -11.8109 -11.7778
     4.2552   5.5792   6.1720   6.5970

          k = 0.0881-0.4576 0.3323 (  7897 PWs)   bands (ev):

   -31.5572 -31.5327 -12.4977 -12.4250 -11.9744 -11.8861 -11.8486 -11.7725
     4.7367   5.2867   6.3842   6.4968

          k = 0.0881-0.2542 0.0665 (  7898 PWs)   bands (ev):

   -31.6397 -31.4830 -12.5057 -12.0699 -12.0269 -11.9117 -11.7708 -11.7446
     2.6271   5.1639   7.2805   7.5268

          k = 0.0881-0.2542 0.1994 (  7884 PWs)   bands (ev):

   -31.6186 -31.5041 -12.4757 -12.0986 -11.9815 -11.9687 -11.7818 -11.7421
     2.9801   4.9396   7.2256   7.6351

          k = 0.0881-0.2542 0.3323 (  7885 PWs)   bands (ev):

   -31.5824 -31.5405 -12.3940 -12.2574 -11.9166 -11.8749 -11.8432 -11.7809
     3.6064   4.3474   7.4353   7.6593

          k = 0.0881-0.0508 0.0665 (  7916 PWs)   bands (ev):

   -31.6684 -31.4779 -12.5891 -11.9659 -11.9540 -11.7836 -11.7390 -11.7240
     1.8890   4.8258   7.6067   9.1513

          k = 0.0881-0.0508 0.1994 (  7894 PWs)   bands (ev):

   -31.6430 -31.5035 -12.4961 -11.9338 -11.9254 -11.9100 -11.7680 -11.7513
     2.2831   4.4830   7.8042   9.1821

          k = 0.0881-0.0508 0.3323 (  7888 PWs)   bands (ev):

   -31.5990 -31.5480 -12.3259 -12.1133 -11.8757 -11.8733 -11.8181 -11.8070
     2.9762   3.7925   8.3437   8.9494

          k = 0.2642 0.4576 0.0665 (  7895 PWs)   bands (ev):

   -31.5734 -31.5085 -12.3180 -12.2603 -12.1063 -12.0836 -11.9164 -11.8038
     4.4175   5.5714   5.8219   6.7678

          k = 0.2642 0.4576 0.1994 (  7902 PWs)   bands (ev):

   -31.5645 -31.5170 -12.4378 -12.3277 -12.1373 -11.9413 -11.8559 -11.7936
     4.6713   5.7224   6.0168   6.4840

          k = 0.2642 0.4576 0.3323 (  7915 PWs)   bands (ev):

   -31.5493 -31.5319 -12.4851 -12.4411 -12.0613 -11.9577 -11.8023 -11.7512
     5.1112   5.5928   6.2566   6.3249

          k = 0.2642 0.6609 0.0665 (  7911 PWs)   bands (ev):

   -31.5546 -31.5212 -12.3030 -12.2437 -12.1522 -12.0707 -11.9689 -11.8200
     4.9470   5.4497   5.5958   6.6995

          k = 0.2642 0.6609 0.1994 (  7903 PWs)   bands (ev):

   -31.5498 -31.5253 -12.4204 -12.3467 -12.1921 -11.9052 -11.8788 -11.8189
     5.1574   5.6837   5.7999   6.4367

          k = 0.2642 0.6609 0.3323 (  7912 PWs)   bands (ev):

   -31.5418 -31.5328 -12.4872 -12.4599 -12.0992 -11.9848 -11.7821 -11.7527
     5.5190   5.9041   5.9979   6.1190

          k = 0.2642-0.3559 0.0665 (  7888 PWs)   bands (ev):

   -31.5954 -31.4974 -12.3803 -12.2084 -12.1125 -12.0241 -11.8650 -11.7761
     3.8189   5.5036   6.2321   6.8953

          k = 0.2642-0.3559 0.1994 (  7897 PWs)   bands (ev):

   -31.5822 -31.5104 -12.4591 -12.2755 -12.0705 -11.9737 -11.8258 -11.7700
     4.1060   5.5335   6.3977   6.6425

          k = 0.2642-0.3559 0.3323 (  7893 PWs)   bands (ev):

   -31.5593 -31.5330 -12.4732 -12.4031 -12.0037 -11.9142 -11.8302 -11.7582
     4.6132   5.1960   6.5722   6.6098

          k = 0.2642-0.1525 0.0665 (  7906 PWs)   bands (ev):

   -31.6313 -31.4852 -12.4818 -12.1174 -12.0142 -11.9590 -11.7901 -11.7386
     2.8498   5.2443   7.1796   7.2162

          k = 0.2642-0.1525 0.1994 (  7887 PWs)   bands (ev):

   -31.6116 -31.5047 -12.4750 -12.1382 -11.9977 -11.9779 -11.7761 -11.7523
     3.1898   5.0629   7.0784   7.3290

          k = 0.2642-0.1525 0.3323 (  7882 PWs)   bands (ev):

   -31.5777 -31.5386 -12.4167 -12.2948 -11.9146 -11.8812 -11.8407 -11.7855
     3.7940   4.5082   7.2261   7.3909

          k = 0.4403 0.7626 0.0665 (  7905 PWs)   bands (ev):

   -31.5625 -31.5156 -12.3486 -12.2082 -12.1495 -12.0813 -11.9533 -11.7898
     5.0158   5.1972   5.6210   6.7226

          k = 0.4403 0.7626 0.1994 (  7918 PWs)   bands (ev):

   -31.5560 -31.5216 -12.4641 -12.3318 -12.1449 -11.9313 -11.8619 -11.8007
     5.1961   5.4616   5.8064   6.4261

          k = 0.4403 0.7626 0.3323 (  7910 PWs)   bands (ev):

   -31.5448 -31.5322 -12.5114 -12.4644 -12.0526 -11.9466 -11.8052 -11.7583
     5.5311   5.8084   5.9660   5.9885

          k = 0.4403-0.2542 0.0665 (  7905 PWs)   bands (ev):

   -31.5833 -31.5033 -12.3854 -12.2234 -12.1068 -12.0683 -11.9047 -11.7438
     4.2874   5.5320   5.7016   6.8176

          k = 0.4403-0.2542 0.1994 (  7900 PWs)   bands (ev):

   -31.5724 -31.5138 -12.4973 -12.3049 -12.0258 -12.0189 -11.8029 -11.7884
     4.5385   5.6610   5.8575   6.5123

          k = 0.4403-0.2542 0.3323 (  7905 PWs)   bands (ev):

   -31.5536 -31.5322 -12.5221 -12.4515 -11.9516 -11.8671 -11.8647 -11.7870
     4.9746   5.4618   6.1284   6.3083

!    total energy              =    -151.50206590 Ry
     Harris-Foulkes estimate   =    -151.50206590 Ry
     estimated scf accuracy    <          5.2E-09 Ry

     The total energy is the sum of the following terms:

     one-electron contribution =     -42.34211022 Ry
     hartree contribution      =      28.31196346 Ry
     xc contribution           =     -23.81546830 Ry
     ewald contribution        =    -113.65645083 Ry

     convergence has been achieved in  10 iterations

     Forces acting on atoms (Ry/au):

     atom    1 type  2   force =    -0.00000000    0.00000000   -0.00000000
     atom    2 type  2   force =    -0.00000000    0.00000000   -0.00000000
     atom    3 type  1   force =    -0.00000000    0.00000000    0.00000000
     atom    4 type  1   force =     0.00000000   -0.00000000    0.00000000
     atom    5 type  1   force =    -0.00000000   -0.00000000   -0.00000000
     atom    6 type  1   force =     0.00000000    0.00000000    0.00000000

     Total force =     0.000000     Total SCF correction =     0.000000


     entering subroutine stress ...

          total   stress  (Ry/bohr**3)                   (kbar)     P=  198.05
   0.00134245   0.00000000   0.00000000        197.48      0.00      0.00
   0.00000000   0.00134245   0.00000000          0.00    197.48      0.00
   0.00000000   0.00000000   0.00135407          0.00      0.00    199.19


     Writing output data file CaH2_18GPa-blyp-0200.save

     init_run     :     86.52s CPU     88.57s WALL (       2 calls)
     electrons    :   1467.21s CPU   1492.45s WALL (       8 calls)
     update_pot   :    314.00s CPU    316.15s WALL (       6 calls)
     forces       :    147.88s CPU    149.07s WALL (       8 calls)
     stress       :    368.61s CPU    370.78s WALL (       8 calls)

     Called by init_run:
     wfcinit      :     39.35s CPU     39.89s WALL (       2 calls)
     potinit      :     18.71s CPU     19.37s WALL (       2 calls)

     Called by electrons:
     c_bands      :   1247.98s CPU   1267.31s WALL (      63 calls)
     sum_band     :    185.84s CPU    190.19s WALL (      63 calls)
     v_of_rho     :     16.73s CPU     17.29s WALL (      69 calls)
     mix_rho      :     17.84s CPU     18.71s WALL (      63 calls)

     Called by c_bands:
     init_us_2    :     86.28s CPU     87.72s WALL (    5184 calls)
     cegterg      :   1170.67s CPU   1180.01s WALL (    2268 calls)

     Called by *egterg:
     h_psi        :    908.25s CPU    915.42s WALL (    9305 calls)
     g_psi        :      7.43s CPU      7.42s WALL (    6965 calls)
     cdiaghg      :      5.28s CPU      5.33s WALL (    8945 calls)

     Called by h_psi:
     add_vuspsi   :     81.47s CPU     82.06s WALL (    9305 calls)

     General routines
     calbec       :     90.03s CPU     90.65s WALL (    9881 calls)
     fft          :      4.71s CPU      4.82s WALL (     825 calls)
     ffts         :      6.09s CPU      6.11s WALL (    1063 calls)
     fftw         :    633.76s CPU    638.35s WALL (  190864 calls)
     davcio       :      1.21s CPU     13.02s WALL (    7452 calls)


     PWSCF        : 39m45.37s CPU    40m18.27s WALL


   This run was terminated on:   1:59:37  15Jun2014            

=------------------------------------------------------------------------------=
   JOB DONE.
=------------------------------------------------------------------------------=
