
     Program PWSCF v.5.0.2 (svn rev. 9392) starts on 15Jun2014 at  0:39: 6 

     This program is part of the open-source Quantum ESPRESSO suite
     for quantum simulation of materials; please cite
         "P. Giannozzi et al., J. Phys.:Condens. Matter 21 395502 (2009);
          URL http://www.quantum-espresso.org", 
     in publications or presentations arising from this work. More details at
     http://www.quantum-espresso.org/quote.php

     Serial version

     Current dimensions of program PWSCF are:
     Max number of different atomic species (ntypx) = 10
     Max number of k-points (npk) =  40000
     Max angular momentum in pseudopotentials (lmaxx) =  3
     Waiting for input...
     Reading input from standard input

     G-vector sticks info
     --------------------
     sticks:   dense  smooth     PW     G-vecs:    dense   smooth      PW
     Sum        1675    1675    499                70221    70221   10875



     bravais-lattice index     =            4
     lattice parameter (alat)  =       7.1520  a.u.
     unit-cell volume          =     396.1522 (a.u.)^3
     number of atoms/cell      =            6
     number of atomic types    =            2
     number of electrons       =        24.00
     number of Kohn-Sham states=           12
     kinetic-energy cutoff     =     120.0000  Ry
     charge density cutoff     =     480.0000  Ry
     convergence threshold     =      1.0E-06
     mixing beta               =       0.3000
     number of iterations used =           16  local-TF  mixing
     Exchange-correlation      = BLYP ( 1 3 1 3 0)
     EXX-fraction              =        0.00
     nstep                     =           50


     celldm(1)=   7.152000  celldm(2)=   0.000000  celldm(3)=   1.250400
     celldm(4)=   0.000000  celldm(5)=   0.000000  celldm(6)=   0.000000

     crystal axes: (cart. coord. in units of alat)
               a(1) = (   1.000000   0.000000   0.000000 )  
               a(2) = (  -0.500000   0.866025   0.000000 )  
               a(3) = (   0.000000   0.000000   1.250400 )  

     reciprocal axes: (cart. coord. in units 2 pi/alat)
               b(1) = (  1.000000  0.577350 -0.000000 )  
               b(2) = (  0.000000  1.154701  0.000000 )  
               b(3) = (  0.000000 -0.000000  0.799744 )  


     PseudoPot. # 1 for H  read from file:
     /home/ilia/espresso/pseudo/H.blyp-vbc.UPF
     MD5 check sum: 64d25ad537c4b939b17faee1147b797b
     Pseudo is Norm-conserving, Zval =  1.0
     Generated by new atomic code, or converted to UPF format
     Using radial grid of  243 points,  0 beta functions with: 

     PseudoPot. # 2 for Ca read from file:
     /home/ilia/espresso/pseudo/Ca.blyp-sp-hgh.UPF
     MD5 check sum: 357a6b692114ea82b84239caae8ecfc0
     Pseudo is Norm-conserving, Zval = 10.0
     Generated in analytical, separable form
     Using radial grid of 1169 points,  5 beta functions with: 
                l(1) =   0
                l(2) =   0
                l(3) =   1
                l(4) =   1
                l(5) =   2

     atomic species   valence    mass     pseudopotential
        H              1.00     1.00700     H ( 1.00)
        Ca            10.00    40.07800     Ca( 1.00)

     24 Sym. Ops., with inversion, found (12 have fractional translation)



   Cartesian axes

     site n.     atom                  positions (alat units)
         1           Ca  tau(   1) = (   0.0000000   0.5773503   0.3126000  )
         2           Ca  tau(   2) = (   0.5000000   0.2886751   0.9378000  )
         3           H   tau(   3) = (   0.0000000   0.5773503   0.9378000  )
         4           H   tau(   4) = (   0.5000000   0.2886751   0.3126000  )
         5           H   tau(   5) = (   0.0000000   0.0000000   0.0000000  )
         6           H   tau(   6) = (   0.0000000   0.0000000   0.6252000  )

     number of k points=    36
                       cart. coord. in units 2pi/alat
        k(    1) = (   0.0833333   0.1443376   0.0666453), wk =   0.0370370
        k(    2) = (   0.0833333   0.1443376   0.1999360), wk =   0.0370370
        k(    3) = (   0.0833333   0.1443376   0.3332267), wk =   0.0370370
        k(    4) = (   0.0833333   0.3367877   0.0666453), wk =   0.0740741
        k(    5) = (   0.0833333   0.3367877   0.1999360), wk =   0.0740741
        k(    6) = (   0.0833333   0.3367877   0.3332267), wk =   0.0740741
        k(    7) = (   0.0833333   0.5292377   0.0666453), wk =   0.0740741
        k(    8) = (   0.0833333   0.5292377   0.1999360), wk =   0.0740741
        k(    9) = (   0.0833333   0.5292377   0.3332267), wk =   0.0740741
        k(   10) = (   0.0833333  -0.4330127   0.0666453), wk =   0.0740741
        k(   11) = (   0.0833333  -0.4330127   0.1999360), wk =   0.0740741
        k(   12) = (   0.0833333  -0.4330127   0.3332267), wk =   0.0740741
        k(   13) = (   0.0833333  -0.2405626   0.0666453), wk =   0.0740741
        k(   14) = (   0.0833333  -0.2405626   0.1999360), wk =   0.0740741
        k(   15) = (   0.0833333  -0.2405626   0.3332267), wk =   0.0740741
        k(   16) = (   0.0833333  -0.0481125   0.0666453), wk =   0.0370370
        k(   17) = (   0.0833333  -0.0481125   0.1999360), wk =   0.0370370
        k(   18) = (   0.0833333  -0.0481125   0.3332267), wk =   0.0370370
        k(   19) = (   0.2500000   0.4330127   0.0666453), wk =   0.0370370
        k(   20) = (   0.2500000   0.4330127   0.1999360), wk =   0.0370370
        k(   21) = (   0.2500000   0.4330127   0.3332267), wk =   0.0370370
        k(   22) = (   0.2500000   0.6254628   0.0666453), wk =   0.0740741
        k(   23) = (   0.2500000   0.6254628   0.1999360), wk =   0.0740741
        k(   24) = (   0.2500000   0.6254628   0.3332267), wk =   0.0740741
        k(   25) = (   0.2500000  -0.3367877   0.0666453), wk =   0.0740741
        k(   26) = (   0.2500000  -0.3367877   0.1999360), wk =   0.0740741
        k(   27) = (   0.2500000  -0.3367877   0.3332267), wk =   0.0740741
        k(   28) = (   0.2500000  -0.1443376   0.0666453), wk =   0.0370370
        k(   29) = (   0.2500000  -0.1443376   0.1999360), wk =   0.0370370
        k(   30) = (   0.2500000  -0.1443376   0.3332267), wk =   0.0370370
        k(   31) = (   0.4166667   0.7216878   0.0666453), wk =   0.0370370
        k(   32) = (   0.4166667   0.7216878   0.1999360), wk =   0.0370370
        k(   33) = (   0.4166667   0.7216878   0.3332267), wk =   0.0370370
        k(   34) = (   0.4166667  -0.2405626   0.0666453), wk =   0.0370370
        k(   35) = (   0.4166667  -0.2405626   0.1999360), wk =   0.0370370
        k(   36) = (   0.4166667  -0.2405626   0.3332267), wk =   0.0370370

     Dense  grid:    70221 G-vectors     FFT dimensions: (  50,  50,  64)

     Largest allocated arrays     est. size (Mb)     dimensions
        Kohn-Sham Wavefunctions         1.62 Mb     (   8823,   12)
        NL pseudopotentials             3.50 Mb     (   8823,   26)
        Each V/rho on FFT grid          2.44 Mb     ( 160000)
        Each G-vector array             0.54 Mb     (  70221)
        G-vector shells                 0.54 Mb     (  70221)
     Largest temporary arrays     est. size (Mb)     dimensions
        Auxiliary wavefunctions         6.46 Mb     (   8823,   48)
        Each subspace H/S matrix        0.04 Mb     (  48,  48)
        Each <psi_i|beta_j> matrix      0.00 Mb     (     26,   12)
        Arrays for rho mixing          39.06 Mb     ( 160000,  16)

     Initial potential from superposition of free atoms

     starting charge   23.98928, renormalised to   24.00000
     Starting wfc are   30 randomized atomic wfcs

     total cpu time spent up to now is       62.9 secs

     per-process dynamical memory:    38.9 Mb

     Self-consistent Calculation

     iteration #  1     ecut=   120.00 Ry     beta=0.30
     Davidson diagonalization with overlap
     ethr =  1.00E-02,  avg # of iterations =  2.0

     Threshold (ethr) on eigenvalues was too large:
     Diagonalizing with lowered threshold

     Davidson diagonalization with overlap
     ethr =  9.46E-04,  avg # of iterations =  1.5

     total cpu time spent up to now is      101.0 secs

     total energy              =    -151.57225362 Ry
     Harris-Foulkes estimate   =    -151.59791152 Ry
     estimated scf accuracy    <       0.24273938 Ry

     iteration #  2     ecut=   120.00 Ry     beta=0.30
     Davidson diagonalization with overlap
     ethr =  1.01E-03,  avg # of iterations =  1.0

     total cpu time spent up to now is      118.0 secs

     total energy              =    -151.50927203 Ry
     Harris-Foulkes estimate   =    -151.57351341 Ry
     estimated scf accuracy    <       0.15476846 Ry

     iteration #  3     ecut=   120.00 Ry     beta=0.30
     Davidson diagonalization with overlap
     ethr =  6.45E-04,  avg # of iterations =  2.6

     total cpu time spent up to now is      137.9 secs

     total energy              =    -151.53284486 Ry
     Harris-Foulkes estimate   =    -151.53644127 Ry
     estimated scf accuracy    <       0.01167930 Ry

     iteration #  4     ecut=   120.00 Ry     beta=0.30
     Davidson diagonalization with overlap
     ethr =  4.87E-05,  avg # of iterations =  3.0

     total cpu time spent up to now is      160.5 secs

     total energy              =    -151.53455051 Ry
     Harris-Foulkes estimate   =    -151.53679175 Ry
     estimated scf accuracy    <       0.00612978 Ry

     iteration #  5     ecut=   120.00 Ry     beta=0.30
     Davidson diagonalization with overlap
     ethr =  2.55E-05,  avg # of iterations =  3.6

     total cpu time spent up to now is      183.6 secs

     total energy              =    -151.53572127 Ry
     Harris-Foulkes estimate   =    -151.53577040 Ry
     estimated scf accuracy    <       0.00012997 Ry

     iteration #  6     ecut=   120.00 Ry     beta=0.30
     Davidson diagonalization with overlap
     ethr =  5.42E-07,  avg # of iterations =  4.1

     total cpu time spent up to now is      208.6 secs

     total energy              =    -151.53579169 Ry
     Harris-Foulkes estimate   =    -151.53579071 Ry
     estimated scf accuracy    <       0.00000918 Ry

     iteration #  7     ecut=   120.00 Ry     beta=0.30
     Davidson diagonalization with overlap
     ethr =  3.83E-08,  avg # of iterations =  3.4

     total cpu time spent up to now is      237.0 secs

     total energy              =    -151.53579453 Ry
     Harris-Foulkes estimate   =    -151.53579447 Ry
     estimated scf accuracy    <       0.00000160 Ry

     iteration #  8     ecut=   120.00 Ry     beta=0.30
     Davidson diagonalization with overlap
     ethr =  6.65E-09,  avg # of iterations =  2.1

     total cpu time spent up to now is      257.9 secs

     End of self-consistent calculation

          k = 0.0833 0.1443 0.0666 (  8810 PWs)   bands (ev):

   -33.1257 -32.9918 -13.8893 -13.4885 -13.4828 -13.3405 -13.2703 -13.2692
     1.2957   4.0372   6.7097   7.1126

          k = 0.0833 0.1443 0.1999 (  8821 PWs)   bands (ev):

   -33.1078 -33.0098 -13.8391 -13.4690 -13.4465 -13.4417 -13.2986 -13.2679
     1.6738   3.7687   6.7165   7.2435

          k = 0.0833 0.1443 0.3332 (  8822 PWs)   bands (ev):

   -33.0768 -33.0408 -13.7397 -13.6035 -13.4037 -13.3792 -13.3476 -13.3113
     2.3432   3.1315   7.0039   7.2799

          k = 0.0833 0.3368 0.0666 (  8795 PWs)   bands (ev):

   -33.0984 -33.0039 -13.8034 -13.5745 -13.5268 -13.4480 -13.3285 -13.2686
     2.2578   4.3245   5.5995   6.3661

          k = 0.0833 0.3368 0.1999 (  8792 PWs)   bands (ev):

   -33.0855 -33.0165 -13.8312 -13.6124 -13.4953 -13.4502 -13.3055 -13.2694
     2.5895   4.2747   5.7693   6.0779

          k = 0.0833 0.3368 0.3332 (  8800 PWs)   bands (ev):

   -33.0635 -33.0383 -13.8140 -13.7343 -13.4380 -13.3678 -13.3464 -13.2779
     3.1753   3.8455   5.9541   6.0143

          k = 0.0833 0.5292 0.0666 (  8793 PWs)   bands (ev):

   -33.0698 -33.0215 -13.7376 -13.6132 -13.5419 -13.5402 -13.3974 -13.2689
     3.5564   4.1612   4.5989   6.1385

          k = 0.0833 0.5292 0.1999 (  8782 PWs)   bands (ev):

   -33.0630 -33.0276 -13.8347 -13.6993 -13.5347 -13.4314 -13.3162 -13.2922
     3.8234   4.4132   4.7510   5.7032

          k = 0.0833 0.5292 0.3332 (  8761 PWs)   bands (ev):

   -33.0515 -33.0385 -13.8646 -13.8157 -13.4631 -13.3824 -13.3215 -13.2705
     4.2757   4.6750   4.8755   5.1872

          k = 0.0833-0.4330 0.0666 (  8788 PWs)   bands (ev):

   -33.0820 -33.0132 -13.7585 -13.6116 -13.5379 -13.4997 -13.3685 -13.2687
     2.8981   4.3952   4.9560   6.2187

          k = 0.0833-0.4330 0.1999 (  8788 PWs)   bands (ev):

   -33.0726 -33.0222 -13.8321 -13.6693 -13.5201 -13.4412 -13.3108 -13.2825
     3.1987   4.5012   5.1342   5.8304

          k = 0.0833-0.4330 0.3332 (  8779 PWs)   bands (ev):

   -33.0564 -33.0380 -13.8464 -13.7867 -13.4539 -13.3770 -13.3311 -13.2718
     3.7222   4.2880   5.3846   5.5659

          k = 0.0833-0.2406 0.0666 (  8796 PWs)   bands (ev):

   -33.1138 -32.9966 -13.8516 -13.5250 -13.5074 -13.3927 -13.2925 -13.2692
     1.7033   4.1826   6.3354   6.5469

          k = 0.0833-0.2406 0.1999 (  8800 PWs)   bands (ev):

   -33.0980 -33.0123 -13.8342 -13.5394 -13.4675 -13.4516 -13.3014 -13.2627
     2.0617   4.0012   6.3932   6.4924

          k = 0.0833-0.2406 0.3332 (  8820 PWs)   bands (ev):

   -33.0708 -33.0395 -13.7751 -13.6683 -13.4195 -13.3646 -13.3563 -13.2914
     2.6967   3.4394   6.4976   6.6117

          k = 0.0833-0.0481 0.0666 (  8823 PWs)   bands (ev):

   -33.1321 -32.9896 -13.9097 -13.4706 -13.4662 -13.3040 -13.2716 -13.2614
     1.0800   3.9471   6.8056   7.7276

          k = 0.0833-0.0481 0.1999 (  8809 PWs)   bands (ev):

   -33.1129 -33.0087 -13.8428 -13.4405 -13.4403 -13.4059 -13.2977 -13.2810
     1.4686   3.6372   6.9229   7.8473

          k = 0.0833-0.0481 0.3332 (  8822 PWs)   bands (ev):

   -33.0800 -33.0417 -13.7183 -13.5597 -13.3952 -13.3875 -13.3430 -13.3289
     2.1558   2.9661   7.3618   7.8028

          k = 0.2500 0.4330 0.0666 (  8799 PWs)   bands (ev):

   -33.0699 -33.0214 -13.7132 -13.6500 -13.5285 -13.5245 -13.3927 -13.2917
     3.2935   4.4185   4.7392   6.1403

          k = 0.2500 0.4330 0.1999 (  8784 PWs)   bands (ev):

   -33.0631 -33.0276 -13.8048 -13.7044 -13.5748 -13.3982 -13.3367 -13.2912
     3.5772   4.5868   4.9531   5.7617

          k = 0.2500 0.4330 0.3332 (  8784 PWs)   bands (ev):

   -33.0516 -33.0386 -13.8418 -13.8037 -13.5056 -13.4172 -13.2952 -13.2562
     4.0624   4.5417   5.2382   5.4163

          k = 0.2500 0.6255 0.0666 (  8807 PWs)   bands (ev):

   -33.0567 -33.0317 -13.6848 -13.6532 -13.5767 -13.5007 -13.4267 -13.2986
     3.8178   4.2782   4.4741   6.0858

          k = 0.2500 0.6255 0.1999 (  8800 PWs)   bands (ev):

   -33.0531 -33.0348 -13.7880 -13.7270 -13.6068 -13.3706 -13.3480 -13.3087
     4.0702   4.5236   4.6870   5.7274

          k = 0.2500 0.6255 0.3332 (  8778 PWs)   bands (ev):

   -33.0469 -33.0402 -13.8432 -13.8210 -13.5273 -13.4323 -13.2781 -13.2557
     4.4910   4.7801   4.9447   5.2339

          k = 0.2500-0.3368 0.0666 (  8789 PWs)   bands (ev):

   -33.0848 -33.0115 -13.7611 -13.6122 -13.5370 -13.4830 -13.3577 -13.2798
     2.7460   4.3977   5.1461   6.2412

          k = 0.2500-0.3368 0.1999 (  8785 PWs)   bands (ev):

   -33.0748 -33.0211 -13.8217 -13.6635 -13.5321 -13.4275 -13.3214 -13.2763
     3.0553   4.4628   5.3397   5.8812

          k = 0.2500-0.3368 0.3332 (  8777 PWs)   bands (ev):

   -33.0575 -33.0379 -13.8324 -13.7734 -13.4714 -13.3926 -13.3201 -13.2640
     3.5962   4.1897   5.5797   5.6857

          k = 0.2500-0.1443 0.0666 (  8796 PWs)   bands (ev):

   -33.1084 -32.9990 -13.8349 -13.5482 -13.5072 -13.4180 -13.3060 -13.2650
     1.8954   4.2384   6.0410   6.4798

          k = 0.2500-0.1443 0.1999 (  8799 PWs)   bands (ev):

   -33.0936 -33.0137 -13.8341 -13.5650 -13.4752 -13.4572 -13.2979 -13.2667
     2.2443   4.1015   6.1826   6.2893

          k = 0.2500-0.1443 0.3332 (  8812 PWs)   bands (ev):

   -33.0683 -33.0390 -13.7914 -13.6946 -13.4194 -13.3635 -13.3545 -13.2895
     2.8623   3.5812   6.2906   6.3639

          k = 0.4167 0.7217 0.0666 (  8798 PWs)   bands (ev):

   -33.0623 -33.0271 -13.7147 -13.6284 -13.5632 -13.5211 -13.4133 -13.2846
     3.8998   3.9994   4.5564   6.1045

          k = 0.4167 0.7217 0.1999 (  8787 PWs)   bands (ev):

   -33.0573 -33.0315 -13.8146 -13.7123 -13.5772 -13.3960 -13.3365 -13.2974
     4.1261   4.2882   4.7404   5.7050

          k = 0.4167 0.7217 0.3332 (  8761 PWs)   bands (ev):

   -33.0488 -33.0393 -13.8561 -13.8196 -13.5001 -13.4111 -13.2960 -13.2599
     4.5366   4.6745   4.8960   5.1369

          k = 0.4167-0.2406 0.0666 (  8798 PWs)   bands (ev):

   -33.0767 -33.0167 -13.7517 -13.6091 -13.5440 -13.5201 -13.3824 -13.2625
     3.1829   4.3449   4.7127   6.1804

          k = 0.4167-0.2406 0.1999 (  8788 PWs)   bands (ev):

   -33.0685 -33.0244 -13.8398 -13.6838 -13.5069 -13.4551 -13.3009 -13.2933
     3.4687   4.5342   4.8634   5.7537

          k = 0.4167-0.2406 0.3332 (  8773 PWs)   bands (ev):

   -33.0543 -33.0381 -13.8608 -13.8040 -13.4423 -13.3669 -13.3381 -13.2778
     3.9609   4.4700   5.1105   5.3710

!    total energy              =    -151.53579454 Ry
     Harris-Foulkes estimate   =    -151.53579465 Ry
     estimated scf accuracy    <       0.00000035 Ry

     The total energy is the sum of the following terms:

     one-electron contribution =     -48.47245937 Ry
     hartree contribution      =      30.10103158 Ry
     xc contribution           =     -23.62192882 Ry
     ewald contribution        =    -109.54243792 Ry

     convergence has been achieved in   8 iterations

     Forces acting on atoms (Ry/au):

     atom    1 type  2   force =     0.00000000   -0.00000000    0.00000000
     atom    2 type  2   force =     0.00000000    0.00000000    0.00000000
     atom    3 type  1   force =     0.00000000   -0.00000000   -0.00000000
     atom    4 type  1   force =     0.00000000    0.00000000    0.00000000
     atom    5 type  1   force =    -0.00000000    0.00000000   -0.00000000
     atom    6 type  1   force =     0.00000000    0.00000000   -0.00000000

     Total force =     0.000000     Total SCF correction =     0.000000


     entering subroutine stress ...

          total   stress  (Ry/bohr**3)                   (kbar)     P=   85.94
   0.00036574  -0.00000000   0.00000000         53.80     -0.00      0.00
  -0.00000000   0.00036574  -0.00000000         -0.00     53.80     -0.00
  -0.00000000   0.00000000   0.00102106         -0.00      0.00    150.20


     BFGS Geometry Optimization

     number of scf cycles    =   1
     number of bfgs steps    =   0

     enthalpy new            =    -151.0510565858 Ry

     new trust radius        =       0.0853739256 bohr
     new conv_thr            =       0.0000010000 Ry

     new unit-cell volume =    377.42107 a.u.^3 (    55.92803 Ang^3 )

CELL_PARAMETERS (alat=  7.15200000)
   0.978553116  -0.000000000  -0.000000000
  -0.489276558   0.847451857   0.000000000
   0.000000000  -0.000000000   1.244068180

ATOMIC_POSITIONS (crystal)
Ca       0.333333333   0.666666667   0.250000000
Ca       0.666666667   0.333333333   0.750000000
H        0.333333333   0.666666667   0.750000000
H        0.666666667   0.333333333   0.250000000
H       -0.000000000   0.000000000  -0.000000000
H        0.000000000   0.000000000   0.500000000



     Writing output data file CaH2_18GPa-blyp-0180.save
     NEW-OLD atomic charge density approx. for the potential
     NEW k-points:
        k(    1) = (   0.0851597   0.1475010   0.0669845), wk =   0.0370370
        k(    2) = (   0.0851597   0.1475010   0.2009536), wk =   0.0370370
        k(    3) = (   0.0851597   0.1475010   0.3349227), wk =   0.0370370
        k(    4) = (   0.0851597   0.3441690   0.0669845), wk =   0.0740741
        k(    5) = (   0.0851597   0.3441690   0.2009536), wk =   0.0740741
        k(    6) = (   0.0851597   0.3441690   0.3349227), wk =   0.0740741
        k(    7) = (   0.0851597   0.5408370   0.0669845), wk =   0.0740741
        k(    8) = (   0.0851597   0.5408370   0.2009536), wk =   0.0740741
        k(    9) = (   0.0851597   0.5408370   0.3349227), wk =   0.0740741
        k(   10) = (   0.0851597  -0.4425030   0.0669845), wk =   0.0740741
        k(   11) = (   0.0851597  -0.4425030   0.2009536), wk =   0.0740741
        k(   12) = (   0.0851597  -0.4425030   0.3349227), wk =   0.0740741
        k(   13) = (   0.0851597  -0.2458350   0.0669845), wk =   0.0740741
        k(   14) = (   0.0851597  -0.2458350   0.2009536), wk =   0.0740741
        k(   15) = (   0.0851597  -0.2458350   0.3349227), wk =   0.0740741
        k(   16) = (   0.0851597  -0.0491670   0.0669845), wk =   0.0370370
        k(   17) = (   0.0851597  -0.0491670   0.2009536), wk =   0.0370370
        k(   18) = (   0.0851597  -0.0491670   0.3349227), wk =   0.0370370
        k(   19) = (   0.2554792   0.4425030   0.0669845), wk =   0.0370370
        k(   20) = (   0.2554792   0.4425030   0.2009536), wk =   0.0370370
        k(   21) = (   0.2554792   0.4425030   0.3349227), wk =   0.0370370
        k(   22) = (   0.2554792   0.6391710   0.0669845), wk =   0.0740741
        k(   23) = (   0.2554792   0.6391710   0.2009536), wk =   0.0740741
        k(   24) = (   0.2554792   0.6391710   0.3349227), wk =   0.0740741
        k(   25) = (   0.2554792  -0.3441690   0.0669845), wk =   0.0740741
        k(   26) = (   0.2554792  -0.3441690   0.2009536), wk =   0.0740741
        k(   27) = (   0.2554792  -0.3441690   0.3349227), wk =   0.0740741
        k(   28) = (   0.2554792  -0.1475010   0.0669845), wk =   0.0370370
        k(   29) = (   0.2554792  -0.1475010   0.2009536), wk =   0.0370370
        k(   30) = (   0.2554792  -0.1475010   0.3349227), wk =   0.0370370
        k(   31) = (   0.4257987   0.7375050   0.0669845), wk =   0.0370370
        k(   32) = (   0.4257987   0.7375050   0.2009536), wk =   0.0370370
        k(   33) = (   0.4257987   0.7375050   0.3349227), wk =   0.0370370
        k(   34) = (   0.4257987  -0.2458350   0.0669845), wk =   0.0370370
        k(   35) = (   0.4257987  -0.2458350   0.2009536), wk =   0.0370370
        k(   36) = (   0.4257987  -0.2458350   0.3349227), wk =   0.0370370
     extrapolated charge   22.80943, renormalised to   24.00000

     total cpu time spent up to now is      386.3 secs

     per-process dynamical memory:    52.7 Mb

     Self-consistent Calculation

     iteration #  1     ecut=   120.00 Ry     beta=0.30
     Davidson diagonalization with overlap
     ethr =  1.00E-06,  avg # of iterations =  8.4

     total cpu time spent up to now is      433.5 secs

     total energy              =    -151.43843844 Ry
     Harris-Foulkes estimate   =    -152.88680044 Ry
     estimated scf accuracy    <       0.08052229 Ry

     iteration #  2     ecut=   120.00 Ry     beta=0.30
     Davidson diagonalization with overlap
     ethr =  3.36E-04,  avg # of iterations =  3.1

     total cpu time spent up to now is      462.6 secs

     total energy              =    -151.51895220 Ry
     Harris-Foulkes estimate   =    -151.51491805 Ry
     estimated scf accuracy    <       0.00188132 Ry

     iteration #  3     ecut=   120.00 Ry     beta=0.30
     Davidson diagonalization with overlap
     ethr =  7.84E-06,  avg # of iterations =  2.1

     total cpu time spent up to now is      480.6 secs

     total energy              =    -151.52304494 Ry
     Harris-Foulkes estimate   =    -151.51907690 Ry
     estimated scf accuracy    <       0.00119788 Ry

     iteration #  4     ecut=   120.00 Ry     beta=0.30
     Davidson diagonalization with overlap
     ethr =  4.99E-06,  avg # of iterations =  1.2

     total cpu time spent up to now is      497.3 secs

     total energy              =    -151.52452152 Ry
     Harris-Foulkes estimate   =    -151.52308707 Ry
     estimated scf accuracy    <       0.00048754 Ry

     iteration #  5     ecut=   120.00 Ry     beta=0.30
     Davidson diagonalization with overlap
     ethr =  2.03E-06,  avg # of iterations =  3.0

     total cpu time spent up to now is      516.4 secs

     total energy              =    -151.52454462 Ry
     Harris-Foulkes estimate   =    -151.52459249 Ry
     estimated scf accuracy    <       0.00004957 Ry

     iteration #  6     ecut=   120.00 Ry     beta=0.30
     Davidson diagonalization with overlap
     ethr =  2.07E-07,  avg # of iterations =  3.1

     total cpu time spent up to now is      542.8 secs

     total energy              =    -151.52461598 Ry
     Harris-Foulkes estimate   =    -151.52456810 Ry
     estimated scf accuracy    <       0.00001360 Ry

     iteration #  7     ecut=   120.00 Ry     beta=0.30
     Davidson diagonalization with overlap
     ethr =  5.67E-08,  avg # of iterations =  2.9

     total cpu time spent up to now is      567.8 secs

     End of self-consistent calculation

          k = 0.0852 0.1475 0.0670 (  8810 PWs)   bands (ev):

   -32.4850 -32.3287 -13.3048 -12.8434 -12.8335 -12.6814 -12.6012 -12.5958
     1.6580   4.4284   7.1065   7.6492

          k = 0.0852 0.1475 0.2010 (  8821 PWs)   bands (ev):

   -32.4641 -32.3498 -13.2463 -12.8236 -12.7971 -12.7888 -12.6322 -12.5970
     2.0427   4.1590   7.1274   7.7656

          k = 0.0852 0.1475 0.3349 (  8822 PWs)   bands (ev):

   -32.4280 -32.3860 -13.1319 -12.9766 -12.7467 -12.7224 -12.6856 -12.6464
     2.7216   3.5178   7.4431   7.7645

          k = 0.0852 0.3442 0.0670 (  8795 PWs)   bands (ev):

   -32.4517 -32.3415 -13.2048 -12.9536 -12.8900 -12.8071 -12.6662 -12.6020
     2.6800   4.7637   6.0622   6.7196

          k = 0.0852 0.3442 0.2010 (  8792 PWs)   bands (ev):

   -32.4368 -32.3562 -13.2371 -12.9945 -12.8520 -12.8096 -12.6431 -12.6023
     3.0117   4.7115   6.2245   6.4552

          k = 0.0852 0.3442 0.3349 (  8800 PWs)   bands (ev):

   -32.4111 -32.3816 -13.2182 -13.1294 -12.7890 -12.7125 -12.6910 -12.6131
     3.5980   4.2722   6.3826   6.4377

          k = 0.0852 0.5408 0.0670 (  8793 PWs)   bands (ev):

   -32.4173 -32.3610 -13.1376 -12.9966 -12.9159 -12.9066 -12.7503 -12.6041
     4.0278   4.6553   5.0111   6.4630

          k = 0.0852 0.5408 0.2010 (  8782 PWs)   bands (ev):

   -32.4095 -32.3682 -13.2467 -13.0938 -12.9001 -12.7901 -12.6590 -12.6300
     4.2852   4.9057   5.1689   6.0568

          k = 0.0852 0.5408 0.3349 (  8761 PWs)   bands (ev):

   -32.3960 -32.3809 -13.2799 -13.2246 -12.8201 -12.7308 -12.6657 -12.6073
     4.7231   5.1558   5.2919   5.5896

          k = 0.0852-0.4425 0.0670 (  8788 PWs)   bands (ev):

   -32.4320 -32.3517 -13.1551 -12.9993 -12.9041 -12.8669 -12.7144 -12.6032
     3.3495   4.8626   5.3936   6.5535

          k = 0.0852-0.4425 0.2010 (  8788 PWs)   bands (ev):

   -32.4210 -32.3622 -13.2407 -13.0602 -12.8823 -12.8011 -12.6509 -12.6186
     3.6458   4.9656   5.5719   6.1920

          k = 0.0852-0.4425 0.3349 (  8779 PWs)   bands (ev):

   -32.4021 -32.3806 -13.2573 -13.1909 -12.8088 -12.7240 -12.6757 -12.6079
     4.1631   4.7323   5.8176   5.9749

          k = 0.0852-0.2458 0.0670 (  8796 PWs)   bands (ev):

   -32.4705 -32.3336 -13.2607 -12.8901 -12.8651 -12.7428 -12.6235 -12.6013
     2.0931   4.5964   6.8280   6.9233

          k = 0.0852-0.2458 0.2010 (  8800 PWs)   bands (ev):

   -32.4521 -32.3520 -13.2399 -12.9083 -12.8181 -12.8076 -12.6368 -12.5928
     2.4552   4.4128   6.7877   6.9746

          k = 0.0852-0.2458 0.3349 (  8820 PWs)   bands (ev):

   -32.4204 -32.3838 -13.1724 -13.0522 -12.7662 -12.7097 -12.6966 -12.6262
     3.0960   3.8449   6.9202   7.0698

          k = 0.0852-0.0492 0.0670 (  8823 PWs)   bands (ev):

   -32.4929 -32.3264 -13.3286 -12.8198 -12.8132 -12.6380 -12.6019 -12.5861
     1.4266   4.3249   7.2146   8.3114

          k = 0.0852-0.0492 0.2010 (  8809 PWs)   bands (ev):

   -32.4706 -32.3488 -13.2513 -12.7871 -12.7851 -12.7508 -12.6304 -12.6111
     1.8235   4.0153   7.3456   8.4106

          k = 0.0852-0.0492 0.3349 (  8822 PWs)   bands (ev):

   -32.4322 -32.3875 -13.1079 -12.9261 -12.7362 -12.7291 -12.6796 -12.6646
     2.5221   3.3413   7.8146   8.3128

          k = 0.2555 0.4425 0.0670 (  8799 PWs)   bands (ev):

   -32.4175 -32.3608 -13.1020 -13.0403 -12.8987 -12.8950 -12.7430 -12.6343
     3.7596   4.8947   5.1872   6.4640

          k = 0.2555 0.4425 0.2010 (  8784 PWs)   bands (ev):

   -32.4096 -32.3681 -13.2079 -13.0999 -12.9482 -12.7532 -12.6843 -12.6289
     4.0378   5.0672   5.4006   6.1097

          k = 0.2555 0.4425 0.3349 (  8784 PWs)   bands (ev):

   -32.3962 -32.3809 -13.2503 -13.2086 -12.8732 -12.7752 -12.6343 -12.5896
     4.5161   5.0061   5.6772   5.8160

          k = 0.2555 0.6392 0.0670 (  8807 PWs)   bands (ev):

   -32.4018 -32.3725 -13.0778 -13.0369 -12.9505 -12.8704 -12.7842 -12.6440
     4.2872   4.7627   4.9338   6.4020

          k = 0.2555 0.6392 0.2010 (  8800 PWs)   bands (ev):

   -32.3975 -32.3762 -13.1902 -13.1224 -12.9886 -12.7216 -12.6991 -12.6496
     4.5297   5.0118   5.1509   6.0711

          k = 0.2555 0.6392 0.3349 (  8778 PWs)   bands (ev):

   -32.3904 -32.3825 -13.2521 -13.2273 -12.9006 -12.7944 -12.6152 -12.5895
     4.9406   5.2752   5.3943   5.6194

          k = 0.2555-0.3442 0.0670 (  8789 PWs)   bands (ev):

   -32.4354 -32.3497 -13.1562 -12.9960 -12.9105 -12.8440 -12.7011 -12.6178
     3.1925   4.8567   5.5964   6.5784

          k = 0.2555-0.3442 0.2010 (  8785 PWs)   bands (ev):

   -32.4237 -32.3610 -13.2267 -13.0537 -12.8961 -12.7855 -12.6641 -12.6109
     3.4991   4.9221   5.7870   6.2420

          k = 0.2555-0.3442 0.3349 (  8777 PWs)   bands (ev):

   -32.4036 -32.3807 -13.2397 -13.1746 -12.8306 -12.7439 -12.6620 -12.5978
     4.0367   4.6344   6.0143   6.0918

          k = 0.2555-0.1475 0.0670 (  8796 PWs)   bands (ev):

   -32.4640 -32.3362 -13.2412 -12.9215 -12.8618 -12.7747 -12.6394 -12.5963
     2.2969   4.6612   6.5207   6.8478

          k = 0.2555-0.1475 0.2010 (  8799 PWs)   bands (ev):

   -32.4467 -32.3533 -13.2400 -12.9390 -12.8268 -12.8162 -12.6324 -12.5985
     2.6482   4.5216   6.6225   6.7081

          k = 0.2555-0.1475 0.3349 (  8812 PWs)   bands (ev):

   -32.4171 -32.3829 -13.1917 -13.0831 -12.7657 -12.7102 -12.6946 -12.6256
     3.2700   3.9941   6.7112   6.8115

          k = 0.4258 0.7375 0.0670 (  8798 PWs)   bands (ev):

   -32.4084 -32.3673 -13.1126 -13.0082 -12.9385 -12.8904 -12.7694 -12.6251
     4.3652   4.4953   4.9931   6.4238

          k = 0.4258 0.7375 0.2010 (  8787 PWs)   bands (ev):

   -32.4026 -32.3725 -13.2230 -13.1066 -12.9521 -12.7493 -12.6849 -12.6363
     4.5799   4.7840   5.1854   6.0526

          k = 0.4258 0.7375 0.3349 (  8761 PWs)   bands (ev):

   -32.3927 -32.3816 -13.2688 -13.2273 -12.8664 -12.7673 -12.6357 -12.5945
     4.9770   5.1739   5.3470   5.5115

          k = 0.4258-0.2458 0.0670 (  8798 PWs)   bands (ev):

   -32.4256 -32.3556 -13.1506 -12.9976 -12.9054 -12.8933 -12.7316 -12.5955
     3.6436   4.8384   5.1213   6.5106

          k = 0.4258-0.2458 0.2010 (  8788 PWs)   bands (ev):

   -32.4160 -32.3646 -13.2517 -13.0770 -12.8648 -12.8193 -12.6380 -12.6329
     3.9224   5.0221   5.2771   6.1130

          k = 0.4258-0.2458 0.3349 (  8773 PWs)   bands (ev):

   -32.3994 -32.3806 -13.2753 -13.2116 -12.7938 -12.7108 -12.6856 -12.6162
     4.4041   4.9178   5.5436   5.7804

!    total energy              =    -151.52463269 Ry
     Harris-Foulkes estimate   =    -151.52461882 Ry
     estimated scf accuracy    <       0.00000025 Ry

     The total energy is the sum of the following terms:

     one-electron contribution =     -45.74919101 Ry
     hartree contribution      =      29.29294964 Ry
     xc contribution           =     -23.70398758 Ry
     ewald contribution        =    -111.36440374 Ry

     convergence has been achieved in   7 iterations

     Forces acting on atoms (Ry/au):

     atom    1 type  2   force =     0.00000000    0.00000000    0.00000000
     atom    2 type  2   force =    -0.00000000    0.00000000    0.00000000
     atom    3 type  1   force =     0.00000000    0.00000000   -0.00000000
     atom    4 type  1   force =     0.00000000   -0.00000000    0.00000000
     atom    5 type  1   force =     0.00000000   -0.00000000    0.00000000
     atom    6 type  1   force =     0.00000000    0.00000000    0.00000000

     Total force =     0.000000     Total SCF correction =     0.000000


     entering subroutine stress ...

          total   stress  (Ry/bohr**3)                   (kbar)     P=  129.61
   0.00071761   0.00000000  -0.00000000        105.56      0.00     -0.00
   0.00000000   0.00071761  -0.00000000          0.00    105.56     -0.00
   0.00000000  -0.00000000   0.00120805          0.00     -0.00    177.71


     number of scf cycles    =   2
     number of bfgs steps    =   1

     enthalpy old            =    -151.0510565858 Ry
     enthalpy new            =    -151.0628144832 Ry

     CASE: enthalpy_new < enthalpy_old

     new trust radius        =       0.1142321411 bohr
     new conv_thr            =       0.0000000100 Ry

     new unit-cell volume =    355.18985 a.u.^3 (    52.63370 Ang^3 )

CELL_PARAMETERS (alat=  7.15200000)
   0.949783792   0.000000000  -0.000000000
  -0.474891896   0.822536892   0.000000000
  -0.000000000  -0.000000000   1.242790401

ATOMIC_POSITIONS (crystal)
Ca       0.333333333   0.666666667   0.250000000
Ca       0.666666667   0.333333333   0.750000000
H        0.333333333   0.666666667   0.750000000
H        0.666666667   0.333333333   0.250000000
H       -0.000000000  -0.000000000  -0.000000000
H        0.000000000   0.000000000   0.500000000



     Writing output data file CaH2_18GPa-blyp-0180.save
     NEW-OLD atomic charge density approx. for the potential
     NEW k-points:
        k(    1) = (   0.0877393   0.1519689   0.0670534), wk =   0.0370370
        k(    2) = (   0.0877393   0.1519689   0.2011602), wk =   0.0370370
        k(    3) = (   0.0877393   0.1519689   0.3352670), wk =   0.0370370
        k(    4) = (   0.0877393   0.3545940   0.0670534), wk =   0.0740741
        k(    5) = (   0.0877393   0.3545940   0.2011602), wk =   0.0740741
        k(    6) = (   0.0877393   0.3545940   0.3352670), wk =   0.0740741
        k(    7) = (   0.0877393   0.5572192   0.0670534), wk =   0.0740741
        k(    8) = (   0.0877393   0.5572192   0.2011602), wk =   0.0740741
        k(    9) = (   0.0877393   0.5572192   0.3352670), wk =   0.0740741
        k(   10) = (   0.0877393  -0.4559066   0.0670534), wk =   0.0740741
        k(   11) = (   0.0877393  -0.4559066   0.2011602), wk =   0.0740741
        k(   12) = (   0.0877393  -0.4559066   0.3352670), wk =   0.0740741
        k(   13) = (   0.0877393  -0.2532814   0.0670534), wk =   0.0740741
        k(   14) = (   0.0877393  -0.2532814   0.2011602), wk =   0.0740741
        k(   15) = (   0.0877393  -0.2532814   0.3352670), wk =   0.0740741
        k(   16) = (   0.0877393  -0.0506563   0.0670534), wk =   0.0370370
        k(   17) = (   0.0877393  -0.0506563   0.2011602), wk =   0.0370370
        k(   18) = (   0.0877393  -0.0506563   0.3352670), wk =   0.0370370
        k(   19) = (   0.2632178   0.4559066   0.0670534), wk =   0.0370370
        k(   20) = (   0.2632178   0.4559066   0.2011602), wk =   0.0370370
        k(   21) = (   0.2632178   0.4559066   0.3352670), wk =   0.0370370
        k(   22) = (   0.2632178   0.6585318   0.0670534), wk =   0.0740741
        k(   23) = (   0.2632178   0.6585318   0.2011602), wk =   0.0740741
        k(   24) = (   0.2632178   0.6585318   0.3352670), wk =   0.0740741
        k(   25) = (   0.2632178  -0.3545940   0.0670534), wk =   0.0740741
        k(   26) = (   0.2632178  -0.3545940   0.2011602), wk =   0.0740741
        k(   27) = (   0.2632178  -0.3545940   0.3352670), wk =   0.0740741
        k(   28) = (   0.2632178  -0.1519689   0.0670534), wk =   0.0370370
        k(   29) = (   0.2632178  -0.1519689   0.2011602), wk =   0.0370370
        k(   30) = (   0.2632178  -0.1519689   0.3352670), wk =   0.0370370
        k(   31) = (   0.4386963   0.7598443   0.0670534), wk =   0.0370370
        k(   32) = (   0.4386963   0.7598443   0.2011602), wk =   0.0370370
        k(   33) = (   0.4386963   0.7598443   0.3352670), wk =   0.0370370
        k(   34) = (   0.4386963  -0.2532814   0.0670534), wk =   0.0370370
        k(   35) = (   0.4386963  -0.2532814   0.2011602), wk =   0.0370370
        k(   36) = (   0.4386963  -0.2532814   0.3352670), wk =   0.0370370
     extrapolated charge   22.49852, renormalised to   24.00000

     total cpu time spent up to now is      694.9 secs

     per-process dynamical memory:    52.7 Mb

     Self-consistent Calculation

     iteration #  1     ecut=   120.00 Ry     beta=0.30
     Davidson diagonalization with overlap
     ethr =  1.00E-06,  avg # of iterations =  9.0

     total cpu time spent up to now is      743.9 secs

     total energy              =    -151.36866950 Ry
     Harris-Foulkes estimate   =    -153.08387426 Ry
     estimated scf accuracy    <       0.12887815 Ry

     iteration #  2     ecut=   120.00 Ry     beta=0.30
     Davidson diagonalization with overlap
     ethr =  5.37E-04,  avg # of iterations =  3.1

     total cpu time spent up to now is      770.1 secs

     total energy              =    -151.49433665 Ry
     Harris-Foulkes estimate   =    -151.48898524 Ry
     estimated scf accuracy    <       0.00265342 Ry

     iteration #  3     ecut=   120.00 Ry     beta=0.30
     Davidson diagonalization with overlap
     ethr =  1.11E-05,  avg # of iterations =  2.0

     total cpu time spent up to now is      787.6 secs

     total energy              =    -151.50063145 Ry
     Harris-Foulkes estimate   =    -151.49450094 Ry
     estimated scf accuracy    <       0.00169237 Ry

     iteration #  4     ecut=   120.00 Ry     beta=0.30
     Davidson diagonalization with overlap
     ethr =  7.05E-06,  avg # of iterations =  1.1

     total cpu time spent up to now is      805.1 secs

     total energy              =    -151.50208298 Ry
     Harris-Foulkes estimate   =    -151.50070944 Ry
     estimated scf accuracy    <       0.00054774 Ry

     iteration #  5     ecut=   120.00 Ry     beta=0.30
     Davidson diagonalization with overlap
     ethr =  2.28E-06,  avg # of iterations =  3.0

     total cpu time spent up to now is      828.0 secs

     total energy              =    -151.50216258 Ry
     Harris-Foulkes estimate   =    -151.50217592 Ry
     estimated scf accuracy    <       0.00005853 Ry

     iteration #  6     ecut=   120.00 Ry     beta=0.30
     Davidson diagonalization with overlap
     ethr =  2.44E-07,  avg # of iterations =  3.1

     total cpu time spent up to now is      854.9 secs

     total energy              =    -151.50219908 Ry
     Harris-Foulkes estimate   =    -151.50217932 Ry
     estimated scf accuracy    <       0.00000605 Ry

     iteration #  7     ecut=   120.00 Ry     beta=0.30
     Davidson diagonalization with overlap
     ethr =  2.52E-08,  avg # of iterations =  1.8

     total cpu time spent up to now is      873.1 secs

     total energy              =    -151.50220765 Ry
     Harris-Foulkes estimate   =    -151.50219953 Ry
     estimated scf accuracy    <       0.00000012 Ry

     iteration #  8     ecut=   120.00 Ry     beta=0.30
     Davidson diagonalization with overlap
     ethr =  4.91E-10,  avg # of iterations =  4.0

     total cpu time spent up to now is      901.6 secs

     total energy              =    -151.50221092 Ry
     Harris-Foulkes estimate   =    -151.50220772 Ry
     estimated scf accuracy    <       0.00000003 Ry

     iteration #  9     ecut=   120.00 Ry     beta=0.30
     Davidson diagonalization with overlap
     ethr =  1.26E-10,  avg # of iterations =  2.9

     total cpu time spent up to now is      926.6 secs

     End of self-consistent calculation

          k = 0.0877 0.1520 0.0671 (  8810 PWs)   bands (ev):

   -31.6554 -31.4698 -12.5534 -12.0004 -11.9822 -11.8267 -11.7303 -11.7207
     2.1564   4.9572   7.5870   8.3840

          k = 0.0877 0.1520 0.2012 (  8821 PWs)   bands (ev):

   -31.6307 -31.4949 -12.4821 -11.9850 -11.9500 -11.9341 -11.7638 -11.7260
     2.5446   4.6763   7.6426   8.4682

          k = 0.0877 0.1520 0.3353 (  8822 PWs)   bands (ev):

   -31.5879 -31.5381 -12.3453 -12.1636 -11.8872 -11.8678 -11.8214 -11.7827
     3.2277   4.0274   8.0051   8.3972

          k = 0.0877 0.3546 0.0671 (  8795 PWs)   bands (ev):

   -31.6127 -31.4819 -12.4322 -12.1541 -12.0623 -11.9784 -11.8068 -11.7370
     3.2669   5.3656   6.6967   7.1433

          k = 0.0877 0.3546 0.2012 (  8792 PWs)   bands (ev):

   -31.5950 -31.4994 -12.4691 -12.1983 -12.0141 -11.9806 -11.7830 -11.7397
     3.5921   5.2975   6.8284   6.9431

          k = 0.0877 0.3546 0.3353 (  8800 PWs)   bands (ev):

   -31.5646 -31.5296 -12.4475 -12.3477 -11.9432 -11.8628 -11.8426 -11.7550
     4.1683   4.8388   6.9308   7.0097

          k = 0.0877 0.5572 0.0671 (  8793 PWs)   bands (ev):

   -31.5694 -31.5028 -12.3698 -12.2013 -12.1166 -12.0784 -11.9133 -11.7433
     4.6777   5.3353   5.5869   6.8487

          k = 0.0877 0.5572 0.2012 (  8782 PWs)   bands (ev):

   -31.5602 -31.5114 -12.4910 -12.3158 -12.0754 -11.9624 -11.8108 -11.7736
     4.9111   5.5647   5.7520   6.5040

          k = 0.0877 0.5572 0.3353 (  8761 PWs)   bands (ev):

   -31.5444 -31.5265 -12.5270 -12.4635 -11.9843 -11.8855 -11.8214 -11.7534
     5.3073   5.7174   5.9213   6.1458

          k = 0.0877-0.4559 0.0671 (  8788 PWs)   bands (ev):

   -31.5878 -31.4925 -12.3774 -12.2137 -12.0854 -12.0473 -11.8668 -11.7408
     3.9766   5.5010   6.0019   6.9525

          k = 0.0877-0.4559 0.2012 (  8788 PWs)   bands (ev):

   -31.5748 -31.5051 -12.4781 -12.2773 -12.0529 -11.9748 -11.7967 -11.7605
     4.2591   5.5864   6.1707   6.6506

          k = 0.0877-0.4559 0.3353 (  8779 PWs)   bands (ev):

   -31.5525 -31.5270 -12.4973 -12.4227 -11.9693 -11.8765 -11.8311 -11.7523
     4.7547   5.3149   6.3986   6.5201

          k = 0.0877-0.2533 0.0671 (  8796 PWs)   bands (ev):

   -31.6367 -31.4743 -12.4997 -12.0661 -12.0262 -11.9015 -11.7548 -11.7332
     2.6326   5.1605   7.3759   7.5030

          k = 0.0877-0.2533 0.2012 (  8800 PWs)   bands (ev):

   -31.6150 -31.4961 -12.4723 -12.0917 -11.9735 -11.9675 -11.7720 -11.7251
     2.9940   4.9623   7.2825   7.6259

          k = 0.0877-0.2533 0.3353 (  8820 PWs)   bands (ev):

   -31.5774 -31.5339 -12.3919 -12.2538 -11.9130 -11.8621 -11.8366 -11.7652
     3.6332   4.3827   7.4655   7.6724

          k = 0.0877-0.0507 0.0671 (  8823 PWs)   bands (ev):

   -31.6655 -31.4679 -12.5827 -11.9666 -11.9557 -11.7727 -11.7295 -11.7083
     1.9012   4.8325   7.7111   9.1138

          k = 0.0877-0.0507 0.2012 (  8809 PWs)   bands (ev):

   -31.6392 -31.4946 -12.4899 -11.9321 -11.9256 -11.8997 -11.7600 -11.7395
     2.3039   4.5137   7.8739   9.1683

          k = 0.0877-0.0507 0.3353 (  8822 PWs)   bands (ev):

   -31.5937 -31.5407 -12.3192 -12.1049 -11.8733 -11.8688 -11.8127 -11.7988
     3.0097   3.8338   8.3892   8.9730

          k = 0.2632 0.4559 0.0671 (  8799 PWs)   bands (ev):

   -31.5698 -31.5024 -12.3121 -12.2558 -12.0943 -12.0758 -11.9018 -11.7872
     4.4088   5.5533   5.8063   6.8493

          k = 0.2632 0.4559 0.2012 (  8784 PWs)   bands (ev):

   -31.5604 -31.5111 -12.4363 -12.3224 -12.1345 -11.9240 -11.8420 -11.7745
     4.6716   5.7217   6.0125   6.5429

          k = 0.2632 0.4559 0.3353 (  8784 PWs)   bands (ev):

   -31.5445 -31.5265 -12.4855 -12.4402 -12.0548 -11.9465 -11.7829 -11.7305
     5.1262   5.6180   6.2689   6.3491

          k = 0.2632 0.6585 0.0671 (  8807 PWs)   bands (ev):

   -31.5505 -31.5158 -12.2980 -12.2388 -12.1436 -12.0584 -11.9542 -11.8022
     4.9355   5.4327   5.5779   6.7781

          k = 0.2632 0.6585 0.2012 (  8800 PWs)   bands (ev):

   -31.5454 -31.5201 -12.4184 -12.3427 -12.1886 -11.8874 -11.8631 -11.8000
     5.1553   5.6782   5.7950   6.4980

          k = 0.2632 0.6585 0.3353 (  8778 PWs)   bands (ev):

   -31.5370 -31.5277 -12.4877 -12.4598 -12.0918 -11.9728 -11.7615 -11.7315
     5.5328   5.9253   6.0100   6.1441

          k = 0.2632-0.3546 0.0671 (  8789 PWs)   bands (ev):

   -31.5921 -31.4904 -12.3748 -12.2026 -12.1033 -12.0164 -11.8498 -11.7615
     3.8147   5.4888   6.2154   6.9810

          k = 0.2632-0.3546 0.2012 (  8785 PWs)   bands (ev):

   -31.5783 -31.5039 -12.4576 -12.2693 -12.0680 -11.9590 -11.8132 -11.7514
     4.1105   5.5421   6.3938   6.6962

          k = 0.2632-0.3546 0.3353 (  8777 PWs)   bands (ev):

   -31.5545 -31.5273 -12.4732 -12.4013 -11.9982 -11.9039 -11.8130 -11.7385
     4.6315   5.2242   6.5889   6.6307

          k = 0.2632-0.1520 0.0671 (  8796 PWs)   bands (ev):

   -31.6283 -31.4767 -12.4760 -12.1115 -12.0159 -11.9464 -11.7740 -11.7271
     2.8535   5.2385   7.1761   7.2918

          k = 0.2632-0.1520 0.2012 (  8799 PWs)   bands (ev):

   -31.6079 -31.4971 -12.4723 -12.1308 -11.9874 -11.9779 -11.7665 -11.7342
     3.2019   5.0834   7.1315   7.3232

          k = 0.2632-0.1520 0.3353 (  8812 PWs)   bands (ev):

   -31.5728 -31.5322 -12.4153 -12.2917 -11.9116 -11.8665 -11.8342 -11.7679
     3.8191   4.5420   7.2542   7.4040

          k = 0.4387 0.7598 0.0671 (  8798 PWs)   bands (ev):

   -31.5585 -31.5099 -12.3419 -12.2032 -12.1378 -12.0738 -11.9376 -11.7739
     5.0055   5.1814   5.6045   6.8035

          k = 0.4387 0.7598 0.2012 (  8787 PWs)   bands (ev):

   -31.5517 -31.5160 -12.4615 -12.3265 -12.1414 -11.9156 -11.8455 -11.7830
     5.1944   5.4583   5.8030   6.4879

          k = 0.4387 0.7598 0.3353 (  8761 PWs)   bands (ev):

   -31.5400 -31.5269 -12.5112 -12.4633 -12.0460 -11.9356 -11.7854 -11.7374
     5.5460   5.8237   5.9780   6.0218

          k = 0.4387-0.2533 0.0671 (  8798 PWs)   bands (ev):

   -31.5798 -31.4968 -12.3792 -12.2120 -12.0923 -12.0699 -11.8889 -11.7305
     4.2808   5.5147   5.6906   6.9035

          k = 0.4387-0.2533 0.2012 (  8788 PWs)   bands (ev):

   -31.5685 -31.5076 -12.4951 -12.2976 -12.0255 -12.0026 -11.7823 -11.7772
     4.5411   5.6646   5.8570   6.5692

          k = 0.4387-0.2533 0.3353 (  8773 PWs)   bands (ev):

   -31.5489 -31.5266 -12.5213 -12.4490 -11.9479 -11.8570 -11.8471 -11.7653
     4.9919   5.4899   6.1412   6.3329

!    total energy              =    -151.50221097 Ry
     Harris-Foulkes estimate   =    -151.50221094 Ry
     estimated scf accuracy    <          6.9E-09 Ry

     The total energy is the sum of the following terms:

     one-electron contribution =     -42.27878028 Ry
     hartree contribution      =      28.28949803 Ry
     xc contribution           =     -23.81490496 Ry
     ewald contribution        =    -113.69802376 Ry

     convergence has been achieved in   9 iterations

     Forces acting on atoms (Ry/au):

     atom    1 type  2   force =     0.00000000   -0.00000000    0.00000000
     atom    2 type  2   force =     0.00000000   -0.00000000   -0.00000000
     atom    3 type  1   force =    -0.00000000    0.00000000   -0.00000000
     atom    4 type  1   force =     0.00000000   -0.00000000    0.00000000
     atom    5 type  1   force =    -0.00000000   -0.00000000   -0.00000000
     atom    6 type  1   force =     0.00000000   -0.00000000    0.00000000

     Total force =     0.000000     Total SCF correction =     0.000000


     entering subroutine stress ...

          total   stress  (Ry/bohr**3)                   (kbar)     P=  199.26
   0.00131113   0.00000000   0.00000000        192.87      0.00      0.00
   0.00000000   0.00131113   0.00000000          0.00    192.87      0.00
   0.00000000   0.00000000   0.00144129          0.00      0.00    212.02


     number of scf cycles    =   3
     number of bfgs steps    =   2

     enthalpy old            =    -151.0628144832 Ry
     enthalpy new            =    -151.0675952254 Ry

     CASE: enthalpy_new < enthalpy_old

     new trust radius        =       0.0157247643 bohr
     new conv_thr            =       0.0000000100 Ry

     new unit-cell volume =    359.33876 a.u.^3 (    53.24851 Ang^3 )

CELL_PARAMETERS (alat=  7.15200000)
   0.953328337   0.000000000  -0.000000000
  -0.476664169   0.825606558   0.000000000
  -0.000000000  -0.000000000   1.247975079

ATOMIC_POSITIONS (crystal)
Ca       0.333333333   0.666666667   0.250000000
Ca       0.666666667   0.333333333   0.750000000
H        0.333333333   0.666666667   0.750000000
H        0.666666667   0.333333333   0.250000000
H       -0.000000000  -0.000000000  -0.000000000
H        0.000000000   0.000000000   0.500000000



     Writing output data file CaH2_18GPa-blyp-0180.save
     NEW-OLD atomic charge density approx. for the potential
     NEW k-points:
        k(    1) = (   0.0874130   0.1514038   0.0667748), wk =   0.0370370
        k(    2) = (   0.0874130   0.1514038   0.2003245), wk =   0.0370370
        k(    3) = (   0.0874130   0.1514038   0.3338742), wk =   0.0370370
        k(    4) = (   0.0874130   0.3532756   0.0667748), wk =   0.0740741
        k(    5) = (   0.0874130   0.3532756   0.2003245), wk =   0.0740741
        k(    6) = (   0.0874130   0.3532756   0.3338742), wk =   0.0740741
        k(    7) = (   0.0874130   0.5551474   0.0667748), wk =   0.0740741
        k(    8) = (   0.0874130   0.5551474   0.2003245), wk =   0.0740741
        k(    9) = (   0.0874130   0.5551474   0.3338742), wk =   0.0740741
        k(   10) = (   0.0874130  -0.4542115   0.0667748), wk =   0.0740741
        k(   11) = (   0.0874130  -0.4542115   0.2003245), wk =   0.0740741
        k(   12) = (   0.0874130  -0.4542115   0.3338742), wk =   0.0740741
        k(   13) = (   0.0874130  -0.2523397   0.0667748), wk =   0.0740741
        k(   14) = (   0.0874130  -0.2523397   0.2003245), wk =   0.0740741
        k(   15) = (   0.0874130  -0.2523397   0.3338742), wk =   0.0740741
        k(   16) = (   0.0874130  -0.0504679   0.0667748), wk =   0.0370370
        k(   17) = (   0.0874130  -0.0504679   0.2003245), wk =   0.0370370
        k(   18) = (   0.0874130  -0.0504679   0.3338742), wk =   0.0370370
        k(   19) = (   0.2622391   0.4542115   0.0667748), wk =   0.0370370
        k(   20) = (   0.2622391   0.4542115   0.2003245), wk =   0.0370370
        k(   21) = (   0.2622391   0.4542115   0.3338742), wk =   0.0370370
        k(   22) = (   0.2622391   0.6560833   0.0667748), wk =   0.0740741
        k(   23) = (   0.2622391   0.6560833   0.2003245), wk =   0.0740741
        k(   24) = (   0.2622391   0.6560833   0.3338742), wk =   0.0740741
        k(   25) = (   0.2622391  -0.3532756   0.0667748), wk =   0.0740741
        k(   26) = (   0.2622391  -0.3532756   0.2003245), wk =   0.0740741
        k(   27) = (   0.2622391  -0.3532756   0.3338742), wk =   0.0740741
        k(   28) = (   0.2622391  -0.1514038   0.0667748), wk =   0.0370370
        k(   29) = (   0.2622391  -0.1514038   0.2003245), wk =   0.0370370
        k(   30) = (   0.2622391  -0.1514038   0.3338742), wk =   0.0370370
        k(   31) = (   0.4370652   0.7570192   0.0667748), wk =   0.0370370
        k(   32) = (   0.4370652   0.7570192   0.2003245), wk =   0.0370370
        k(   33) = (   0.4370652   0.7570192   0.3338742), wk =   0.0370370
        k(   34) = (   0.4370652  -0.2523397   0.0667748), wk =   0.0370370
        k(   35) = (   0.4370652  -0.2523397   0.2003245), wk =   0.0370370
        k(   36) = (   0.4370652  -0.2523397   0.3338742), wk =   0.0370370
     extrapolated charge   24.27698, renormalised to   24.00000

     total cpu time spent up to now is     1052.0 secs

     per-process dynamical memory:    52.7 Mb

     Self-consistent Calculation

     iteration #  1     ecut=   120.00 Ry     beta=0.30
     Davidson diagonalization with overlap
     ethr =  1.00E-06,  avg # of iterations =  4.3

     total cpu time spent up to now is     1084.5 secs

     total energy              =    -151.50382127 Ry
     Harris-Foulkes estimate   =    -151.20418655 Ry
     estimated scf accuracy    <       0.00285980 Ry

     iteration #  2     ecut=   120.00 Ry     beta=0.30
     Davidson diagonalization with overlap
     ethr =  1.19E-05,  avg # of iterations =  3.2

     total cpu time spent up to now is     1111.2 secs

     total energy              =    -151.50735589 Ry
     Harris-Foulkes estimate   =    -151.50712416 Ry
     estimated scf accuracy    <       0.00013013 Ry

     iteration #  3     ecut=   120.00 Ry     beta=0.30
     Davidson diagonalization with overlap
     ethr =  5.42E-07,  avg # of iterations =  1.8

     total cpu time spent up to now is     1129.0 secs

     total energy              =    -151.50764317 Ry
     Harris-Foulkes estimate   =    -151.50736199 Ry
     estimated scf accuracy    <       0.00008540 Ry

     iteration #  4     ecut=   120.00 Ry     beta=0.30
     Davidson diagonalization with overlap
     ethr =  3.56E-07,  avg # of iterations =  2.1

     total cpu time spent up to now is     1150.1 secs

     total energy              =    -151.50765674 Ry
     Harris-Foulkes estimate   =    -151.50765152 Ry
     estimated scf accuracy    <       0.00000879 Ry

     iteration #  5     ecut=   120.00 Ry     beta=0.30
     Davidson diagonalization with overlap
     ethr =  3.66E-08,  avg # of iterations =  3.0

     total cpu time spent up to now is     1170.9 secs

     total energy              =    -151.50765462 Ry
     Harris-Foulkes estimate   =    -151.50765847 Ry
     estimated scf accuracy    <       0.00000217 Ry

     iteration #  6     ecut=   120.00 Ry     beta=0.30
     Davidson diagonalization with overlap
     ethr =  9.05E-09,  avg # of iterations =  3.4

     total cpu time spent up to now is     1197.3 secs

     total energy              =    -151.50765851 Ry
     Harris-Foulkes estimate   =    -151.50765557 Ry
     estimated scf accuracy    <       0.00000068 Ry

     iteration #  7     ecut=   120.00 Ry     beta=0.30
     Davidson diagonalization with overlap
     ethr =  2.83E-09,  avg # of iterations =  2.0

     total cpu time spent up to now is     1217.9 secs

     total energy              =    -151.50765864 Ry
     Harris-Foulkes estimate   =    -151.50765858 Ry
     estimated scf accuracy    <       0.00000003 Ry

     iteration #  8     ecut=   120.00 Ry     beta=0.30
     Davidson diagonalization with overlap
     ethr =  1.29E-10,  avg # of iterations =  3.4

     total cpu time spent up to now is     1239.7 secs

     End of self-consistent calculation

          k = 0.0874 0.1514 0.0668 (  8810 PWs)   bands (ev):

   -31.8093 -31.6322 -12.6930 -12.1548 -12.1373 -11.9875 -11.8940 -11.8878
     2.0585   4.8581   7.4521   8.2634

          k = 0.0874 0.1514 0.2003 (  8821 PWs)   bands (ev):

   -31.7858 -31.6562 -12.6237 -12.1410 -12.1063 -12.0914 -11.9263 -11.8916
     2.4422   4.5677   7.5190   8.3458

          k = 0.0874 0.1514 0.3339 (  8822 PWs)   bands (ev):

   -31.7449 -31.6974 -12.4908 -12.3145 -12.0456 -12.0273 -11.9820 -11.9457
     3.1189   3.9145   7.8859   8.2749

          k = 0.0874 0.3533 0.0668 (  8795 PWs)   bands (ev):

   -31.7687 -31.6438 -12.5756 -12.3023 -12.2142 -12.1338 -11.9710 -11.9005
     3.1567   5.2588   6.5883   7.0241

          k = 0.0874 0.3533 0.2003 (  8792 PWs)   bands (ev):

   -31.7518 -31.6605 -12.6099 -12.3461 -12.1684 -12.1363 -11.9450 -11.9052
     3.4794   5.1818   6.7171   6.8315

          k = 0.0874 0.3533 0.3339 (  8800 PWs)   bands (ev):

   -31.7228 -31.6894 -12.5881 -12.4911 -12.0996 -12.0223 -12.0034 -11.9197
     4.0517   4.7192   6.8200   6.8969

          k = 0.0874 0.5551 0.0668 (  8793 PWs)   bands (ev):

   -31.7274 -31.6638 -12.5118 -12.3504 -12.2673 -12.2301 -12.0734 -11.9066
     4.5614   5.2167   5.4851   6.7394

          k = 0.0874 0.5551 0.2003 (  8782 PWs)   bands (ev):

   -31.7186 -31.6720 -12.6292 -12.4599 -12.2273 -12.1195 -11.9728 -11.9370
     4.7954   5.4464   5.6411   6.3929

          k = 0.0874 0.5551 0.3339 (  8761 PWs)   bands (ev):

   -31.7035 -31.6864 -12.6640 -12.6026 -12.1391 -12.0438 -11.9838 -11.9183
     5.1934   5.6082   5.7935   6.0282

          k = 0.0874-0.4542 0.0668 (  8788 PWs)   bands (ev):

   -31.7449 -31.6540 -12.5214 -12.3605 -12.2367 -12.2003 -12.0286 -11.9042
     3.8616   5.3904   5.8952   6.8397

          k = 0.0874-0.4542 0.2003 (  8788 PWs)   bands (ev):

   -31.7326 -31.6660 -12.6176 -12.4225 -12.2056 -12.1311 -11.9586 -11.9249
     4.1430   5.4694   6.0603   6.5406

          k = 0.0874-0.4542 0.3339 (  8779 PWs)   bands (ev):

   -31.7112 -31.6869 -12.6356 -12.5632 -12.1247 -12.0352 -11.9929 -11.9172
     4.6367   5.1949   6.2845   6.4079

          k = 0.0874-0.2523 0.0668 (  8796 PWs)   bands (ev):

   -31.7915 -31.6365 -12.6410 -12.2178 -12.1795 -12.0596 -11.9207 -11.8968
     2.5289   5.0576   7.2486   7.3902

          k = 0.0874-0.2523 0.2003 (  8800 PWs)   bands (ev):

   -31.7708 -31.6574 -12.6137 -12.2435 -12.1293 -12.1233 -11.9343 -11.8910
     2.8867   4.8501   7.1657   7.5108

          k = 0.0874-0.2523 0.3339 (  8820 PWs)   bands (ev):

   -31.7349 -31.6934 -12.5351 -12.4009 -12.0705 -12.0223 -11.9967 -11.9292
     3.5205   4.2663   7.3521   7.5564

          k = 0.0874-0.0505 0.0668 (  8823 PWs)   bands (ev):

   -31.8190 -31.6304 -12.7213 -12.1223 -12.1118 -11.9356 -11.8932 -11.8758
     1.8068   4.7358   7.5716   8.9843

          k = 0.0874-0.0505 0.2003 (  8809 PWs)   bands (ev):

   -31.7939 -31.6559 -12.6313 -12.0891 -12.0827 -12.0598 -11.9227 -11.9040
     2.2045   4.4073   7.7453   9.0371

          k = 0.0874-0.0505 0.3339 (  8822 PWs)   bands (ev):

   -31.7504 -31.6998 -12.4660 -12.2585 -12.0322 -12.0280 -11.9736 -11.9607
     2.9033   3.7232   8.2643   8.8433

          k = 0.2622 0.4542 0.0668 (  8799 PWs)   bands (ev):

   -31.7277 -31.6635 -12.4587 -12.3999 -12.2457 -12.2285 -12.0619 -11.9488
     4.2914   5.4394   5.6986   6.7412

          k = 0.2622 0.4542 0.2003 (  8784 PWs)   bands (ev):

   -31.7188 -31.6718 -12.5774 -12.4658 -12.2840 -12.0824 -12.0016 -11.9387
     4.5532   5.6009   5.9010   6.4360

          k = 0.2622 0.4542 0.3339 (  8784 PWs)   bands (ev):

   -31.7036 -31.6864 -12.6245 -12.5803 -12.2067 -12.1022 -11.9466 -11.8962
     5.0061   5.4942   6.1536   6.2383

          k = 0.2622 0.6561 0.0668 (  8807 PWs)   bands (ev):

   -31.7093 -31.6762 -12.4416 -12.3863 -12.2941 -12.2116 -12.1122 -11.9632
     4.8203   5.3162   5.4657   6.6730

          k = 0.2622 0.6561 0.2003 (  8800 PWs)   bands (ev):

   -31.7045 -31.6803 -12.5596 -12.4862 -12.3357 -12.0470 -12.0222 -11.9632
     5.0403   5.5573   5.6769   6.3913

          k = 0.2622 0.6561 0.3339 (  8778 PWs)   bands (ev):

   -31.6965 -31.6876 -12.6265 -12.5994 -12.2421 -12.1275 -11.9261 -11.8972
     5.4177   5.7998   5.8888   6.0310

          k = 0.2622-0.3533 0.0668 (  8789 PWs)   bands (ev):

   -31.7491 -31.6520 -12.5198 -12.3489 -12.2539 -12.1708 -12.0122 -11.9241
     3.7001   5.3785   6.1086   6.8677

          k = 0.2622-0.3533 0.2003 (  8785 PWs)   bands (ev):

   -31.7359 -31.6648 -12.5983 -12.4144 -12.2201 -12.1159 -11.9739 -11.9164
     3.9941   5.4237   6.2838   6.5874

          k = 0.2622-0.3533 0.3339 (  8777 PWs)   bands (ev):

   -31.7131 -31.6871 -12.6127 -12.5427 -12.1524 -12.0614 -11.9754 -11.9039
     4.5123   5.1021   6.4768   6.5200

          k = 0.2622-0.1514 0.0668 (  8796 PWs)   bands (ev):

   -31.7835 -31.6388 -12.6181 -12.2613 -12.1698 -12.1026 -11.9394 -11.8910
     2.7474   5.1343   7.0647   7.1679

          k = 0.2622-0.1514 0.2003 (  8799 PWs)   bands (ev):

   -31.7641 -31.6583 -12.6134 -12.2811 -12.1429 -12.1331 -11.9290 -11.9000
     3.0926   4.9700   7.0167   7.2099

          k = 0.2622-0.1514 0.3339 (  8812 PWs)   bands (ev):

   -31.7306 -31.6918 -12.5574 -12.4372 -12.0690 -12.0266 -11.9943 -11.9320
     3.7049   4.4245   7.1421   7.2895

          k = 0.4371 0.7570 0.0668 (  8798 PWs)   bands (ev):

   -31.7170 -31.6705 -12.4844 -12.3522 -12.2880 -12.2260 -12.0965 -11.9360
     4.8917   5.0612   5.4976   6.6967

          k = 0.4371 0.7570 0.2003 (  8787 PWs)   bands (ev):

   -31.7105 -31.6764 -12.6009 -12.4705 -12.2905 -12.0745 -12.0055 -11.9465
     5.0818   5.3353   5.6889   6.3789

          k = 0.4371 0.7570 0.3339 (  8761 PWs)   bands (ev):

   -31.6993 -31.6868 -12.6489 -12.6026 -12.1983 -12.0919 -11.9491 -11.9029
     5.4357   5.7017   5.8534   5.9068

          k = 0.4371-0.2523 0.0668 (  8798 PWs)   bands (ev):

   -31.7373 -31.6580 -12.5219 -12.3599 -12.2437 -12.2218 -12.0500 -11.8943
     4.1652   5.3988   5.5884   6.7919

          k = 0.4371-0.2523 0.2003 (  8788 PWs)   bands (ev):

   -31.7265 -31.6684 -12.6334 -12.4422 -12.1789 -12.1584 -11.9465 -11.9393
     4.4251   5.5482   5.7463   6.4580

          k = 0.4371-0.2523 0.3339 (  8773 PWs)   bands (ev):

   -31.7078 -31.6865 -12.6585 -12.5885 -12.1040 -12.0163 -12.0086 -11.9299
     4.8757   5.3736   6.0230   6.2180

!    total energy              =    -151.50765867 Ry
     Harris-Foulkes estimate   =    -151.50765865 Ry
     estimated scf accuracy    <          1.9E-09 Ry

     The total energy is the sum of the following terms:

     one-electron contribution =     -42.93093572 Ry
     hartree contribution      =      28.47751064 Ry
     xc contribution           =     -23.79474513 Ry
     ewald contribution        =    -113.25948846 Ry

     convergence has been achieved in   8 iterations

     Forces acting on atoms (Ry/au):

     atom    1 type  2   force =    -0.00000000    0.00000000    0.00000000
     atom    2 type  2   force =    -0.00000000    0.00000000   -0.00000000
     atom    3 type  1   force =     0.00000000   -0.00000000    0.00000000
     atom    4 type  1   force =    -0.00000000   -0.00000000   -0.00000000
     atom    5 type  1   force =     0.00000000   -0.00000000   -0.00000000
     atom    6 type  1   force =     0.00000000   -0.00000000   -0.00000000

     Total force =     0.000000     Total SCF correction =     0.000000


     entering subroutine stress ...

          total   stress  (Ry/bohr**3)                   (kbar)     P=  185.91
   0.00121566  -0.00000000  -0.00000000        178.83     -0.00     -0.00
  -0.00000000   0.00121566   0.00000000         -0.00    178.83      0.00
   0.00000000  -0.00000000   0.00136014          0.00     -0.00    200.08


     number of scf cycles    =   4
     number of bfgs steps    =   3

     enthalpy old            =    -151.0675952254 Ry
     enthalpy new            =    -151.0679662510 Ry

     CASE: enthalpy_new < enthalpy_old

     new trust radius        =       0.0231910835 bohr
     new conv_thr            =       0.0000000100 Ry

     new unit-cell volume =    361.61917 a.u.^3 (    53.58643 Ang^3 )

CELL_PARAMETERS (alat=  7.15200000)
   0.953436874   0.000000000  -0.000000000
  -0.476718437   0.825700554  -0.000000000
  -0.000000000  -0.000000000   1.255608952

ATOMIC_POSITIONS (crystal)
Ca       0.333333333   0.666666667   0.250000000
Ca       0.666666667   0.333333333   0.750000000
H        0.333333333   0.666666667   0.750000000
H        0.666666667   0.333333333   0.250000000
H       -0.000000000  -0.000000000  -0.000000000
H        0.000000000  -0.000000000   0.500000000



     Writing output data file CaH2_18GPa-blyp-0180.save
     NEW-OLD atomic charge density approx. for the potential
     NEW k-points:
        k(    1) = (   0.0874031   0.1513866   0.0663689), wk =   0.0370370
        k(    2) = (   0.0874031   0.1513866   0.1991066), wk =   0.0370370
        k(    3) = (   0.0874031   0.1513866   0.3318443), wk =   0.0370370
        k(    4) = (   0.0874031   0.3532354   0.0663689), wk =   0.0740741
        k(    5) = (   0.0874031   0.3532354   0.1991066), wk =   0.0740741
        k(    6) = (   0.0874031   0.3532354   0.3318443), wk =   0.0740741
        k(    7) = (   0.0874031   0.5550842   0.0663689), wk =   0.0740741
        k(    8) = (   0.0874031   0.5550842   0.1991066), wk =   0.0740741
        k(    9) = (   0.0874031   0.5550842   0.3318443), wk =   0.0740741
        k(   10) = (   0.0874031  -0.4541598   0.0663689), wk =   0.0740741
        k(   11) = (   0.0874031  -0.4541598   0.1991066), wk =   0.0740741
        k(   12) = (   0.0874031  -0.4541598   0.3318443), wk =   0.0740741
        k(   13) = (   0.0874031  -0.2523110   0.0663689), wk =   0.0740741
        k(   14) = (   0.0874031  -0.2523110   0.1991066), wk =   0.0740741
        k(   15) = (   0.0874031  -0.2523110   0.3318443), wk =   0.0740741
        k(   16) = (   0.0874031  -0.0504622   0.0663689), wk =   0.0370370
        k(   17) = (   0.0874031  -0.0504622   0.1991066), wk =   0.0370370
        k(   18) = (   0.0874031  -0.0504622   0.3318443), wk =   0.0370370
        k(   19) = (   0.2622093   0.4541598   0.0663689), wk =   0.0370370
        k(   20) = (   0.2622093   0.4541598   0.1991066), wk =   0.0370370
        k(   21) = (   0.2622093   0.4541598   0.3318443), wk =   0.0370370
        k(   22) = (   0.2622093   0.6560086   0.0663689), wk =   0.0740741
        k(   23) = (   0.2622093   0.6560086   0.1991066), wk =   0.0740741
        k(   24) = (   0.2622093   0.6560086   0.3318443), wk =   0.0740741
        k(   25) = (   0.2622093  -0.3532354   0.0663689), wk =   0.0740741
        k(   26) = (   0.2622093  -0.3532354   0.1991066), wk =   0.0740741
        k(   27) = (   0.2622093  -0.3532354   0.3318443), wk =   0.0740741
        k(   28) = (   0.2622093  -0.1513866   0.0663689), wk =   0.0370370
        k(   29) = (   0.2622093  -0.1513866   0.1991066), wk =   0.0370370
        k(   30) = (   0.2622093  -0.1513866   0.3318443), wk =   0.0370370
        k(   31) = (   0.4370155   0.7569330   0.0663689), wk =   0.0370370
        k(   32) = (   0.4370155   0.7569330   0.1991066), wk =   0.0370370
        k(   33) = (   0.4370155   0.7569330   0.3318443), wk =   0.0370370
        k(   34) = (   0.4370155  -0.2523110   0.0663689), wk =   0.0370370
        k(   35) = (   0.4370155  -0.2523110   0.1991066), wk =   0.0370370
        k(   36) = (   0.4370155  -0.2523110   0.3318443), wk =   0.0370370
     extrapolated charge   24.15128, renormalised to   24.00000

     total cpu time spent up to now is     1363.9 secs

     per-process dynamical memory:    52.7 Mb

     Self-consistent Calculation

     iteration #  1     ecut=   120.00 Ry     beta=0.30
     Davidson diagonalization with overlap
     ethr =  1.00E-06,  avg # of iterations =  4.6

     total cpu time spent up to now is     1399.2 secs

     total energy              =    -151.50944765 Ry
     Harris-Foulkes estimate   =    -151.34381350 Ry
     estimated scf accuracy    <       0.00087275 Ry

     iteration #  2     ecut=   120.00 Ry     beta=0.30
     Davidson diagonalization with overlap
     ethr =  3.64E-06,  avg # of iterations =  3.3

     total cpu time spent up to now is     1426.4 secs

     total energy              =    -151.51053044 Ry
     Harris-Foulkes estimate   =    -151.51042434 Ry
     estimated scf accuracy    <       0.00004059 Ry

     iteration #  3     ecut=   120.00 Ry     beta=0.30
     Davidson diagonalization with overlap
     ethr =  1.69E-07,  avg # of iterations =  1.8

     total cpu time spent up to now is     1444.1 secs

     total energy              =    -151.51065972 Ry
     Harris-Foulkes estimate   =    -151.51053226 Ry
     estimated scf accuracy    <       0.00002676 Ry

     iteration #  4     ecut=   120.00 Ry     beta=0.30
     Davidson diagonalization with overlap
     ethr =  1.12E-07,  avg # of iterations =  2.6

     total cpu time spent up to now is     1467.3 secs

     total energy              =    -151.51066495 Ry
     Harris-Foulkes estimate   =    -151.51066395 Ry
     estimated scf accuracy    <       0.00000050 Ry

     iteration #  5     ecut=   120.00 Ry     beta=0.30
     Davidson diagonalization with overlap
     ethr =  2.09E-09,  avg # of iterations =  3.8

     total cpu time spent up to now is     1489.8 secs

     total energy              =    -151.51066480 Ry
     Harris-Foulkes estimate   =    -151.51066517 Ry
     estimated scf accuracy    <       0.00000026 Ry

     iteration #  6     ecut=   120.00 Ry     beta=0.30
     Davidson diagonalization with overlap
     ethr =  1.10E-09,  avg # of iterations =  2.9

     total cpu time spent up to now is     1515.2 secs

     total energy              =    -151.51066544 Ry
     Harris-Foulkes estimate   =    -151.51066486 Ry
     estimated scf accuracy    <       0.00000009 Ry

     iteration #  7     ecut=   120.00 Ry     beta=0.30
     Davidson diagonalization with overlap
     ethr =  3.58E-10,  avg # of iterations =  2.0

     total cpu time spent up to now is     1536.9 secs

     End of self-consistent calculation

          k = 0.0874 0.1514 0.0664 (  8810 PWs)   bands (ev):

   -31.8856 -31.7152 -12.7626 -12.2288 -12.2107 -12.0691 -11.9765 -11.9745
     2.0074   4.8093   7.3417   8.2196

          k = 0.0874 0.1514 0.1991 (  8821 PWs)   bands (ev):

   -31.8629 -31.7383 -12.6937 -12.2185 -12.1825 -12.1673 -12.0076 -11.9770
     2.3852   4.5030   7.4311   8.2929

          k = 0.0874 0.1514 0.3318 (  8822 PWs)   bands (ev):

   -31.8236 -31.7779 -12.5624 -12.3893 -12.1224 -12.1069 -12.0611 -12.0286
     3.0530   3.8430   7.8120   8.2091

          k = 0.0874 0.3532 0.0664 (  8795 PWs)   bands (ev):

   -31.8460 -31.7259 -12.6468 -12.3761 -12.2882 -12.2121 -12.0562 -11.9839
     3.1041   5.2122   6.5449   6.9262

          k = 0.0874 0.3532 0.1991 (  8792 PWs)   bands (ev):

   -31.8297 -31.7419 -12.6781 -12.4198 -12.2439 -12.2145 -12.0272 -11.9921
     3.4217   5.1194   6.6591   6.7615

          k = 0.0874 0.3532 0.3318 (  8800 PWs)   bands (ev):

   -31.8018 -31.7697 -12.6557 -12.5608 -12.1761 -12.1037 -12.0853 -12.0064
     3.9862   4.6480   6.7560   6.8364

          k = 0.0874 0.5551 0.0664 (  8793 PWs)   bands (ev):

   -31.8059 -31.7447 -12.5828 -12.4259 -12.3453 -12.3029 -12.1568 -11.9906
     4.5102   5.1669   5.4428   6.6489

          k = 0.0874 0.5551 0.1991 (  8782 PWs)   bands (ev):

   -31.7974 -31.7526 -12.6965 -12.5317 -12.3016 -12.2004 -12.0577 -12.0216
     4.7400   5.3911   5.5881   6.3122

          k = 0.0874 0.5551 0.3318 (  8761 PWs)   bands (ev):

   -31.7829 -31.7665 -12.7298 -12.6701 -12.2153 -12.1234 -12.0697 -12.0062
     5.1317   5.5434   5.7283   5.9607

          k = 0.0874-0.4542 0.0664 (  8788 PWs)   bands (ev):

   -31.8229 -31.7354 -12.5928 -12.4348 -12.3125 -12.2759 -12.1128 -11.9880
     3.8091   5.3444   5.8509   6.7467

          k = 0.0874-0.4542 0.1991 (  8788 PWs)   bands (ev):

   -31.8110 -31.7470 -12.6851 -12.4949 -12.2804 -12.2111 -12.0421 -12.0109
     4.0858   5.4103   6.0083   6.4635

          k = 0.0874-0.4542 0.3318 (  8779 PWs)   bands (ev):

   -31.7905 -31.7671 -12.7020 -12.6315 -12.2010 -12.1151 -12.0778 -12.0048
     4.5722   5.1250   6.2237   6.3436

          k = 0.0874-0.2523 0.0664 (  8796 PWs)   bands (ev):

   -31.8682 -31.7191 -12.7114 -12.2918 -12.2529 -12.1396 -12.0069 -11.9798
     2.4770   5.0099   7.1444   7.3471

          k = 0.0874-0.2523 0.1991 (  8800 PWs)   bands (ev):

   -31.8482 -31.7392 -12.6829 -12.3190 -12.2070 -12.1982 -12.0160 -11.9776
     2.8292   4.7860   7.0840   7.4601

          k = 0.0874-0.2523 0.3318 (  8820 PWs)   bands (ev):

   -31.8138 -31.7739 -12.6046 -12.4729 -12.1471 -12.1042 -12.0759 -12.0144
     3.4546   4.1948   7.2842   7.4951

          k = 0.0874-0.0505 0.0664 (  8823 PWs)   bands (ev):

   -31.8950 -31.7136 -12.7905 -12.1963 -12.1856 -12.0183 -11.9754 -11.9625
     1.7563   4.6863   7.4576   8.9395

          k = 0.0874-0.0505 0.1991 (  8809 PWs)   bands (ev):

   -31.8708 -31.7381 -12.7018 -12.1648 -12.1576 -12.1409 -12.0038 -11.9876
     2.1478   4.3424   7.6523   8.9808

          k = 0.0874-0.0505 0.3318 (  8822 PWs)   bands (ev):

   -31.8291 -31.7804 -12.5392 -12.3357 -12.1091 -12.1059 -12.0528 -12.0414
     2.8374   3.6516   8.1840   8.7708

          k = 0.2622 0.4542 0.0664 (  8799 PWs)   bands (ev):

   -31.8062 -31.7444 -12.5314 -12.4707 -12.3232 -12.3048 -12.1448 -12.0331
     4.2395   5.3932   5.6543   6.6524

          k = 0.2622 0.4542 0.1991 (  8784 PWs)   bands (ev):

   -31.7976 -31.7524 -12.6456 -12.5367 -12.3566 -12.1656 -12.0838 -12.0255
     4.4966   5.5436   5.8499   6.3581

          k = 0.2622 0.4542 0.3318 (  8784 PWs)   bands (ev):

   -31.7831 -31.7665 -12.6908 -12.6477 -12.2820 -12.1815 -12.0332 -11.9843
     4.9420   5.4240   6.0931   6.1742

          k = 0.2622 0.6560 0.0664 (  8807 PWs)   bands (ev):

   -31.7884 -31.7566 -12.5125 -12.4589 -12.3698 -12.2902 -12.1941 -12.0478
     4.7705   5.2684   5.4203   6.5869

          k = 0.2622 0.6560 0.1991 (  8800 PWs)   bands (ev):

   -31.7838 -31.7605 -12.6281 -12.5565 -12.4074 -12.1311 -12.1050 -12.0494
     4.9863   5.5022   5.6229   6.3124

          k = 0.2622 0.6560 0.3318 (  8778 PWs)   bands (ev):

   -31.7761 -31.7675 -12.6926 -12.6663 -12.3171 -12.2065 -12.0136 -11.9856
     5.3565   5.7312   5.8257   5.9651

          k = 0.2622-0.3532 0.0664 (  8789 PWs)   bands (ev):

   -31.8269 -31.7335 -12.5916 -12.4212 -12.3297 -12.2480 -12.0963 -12.0080
     3.6474   5.3324   6.0652   6.7745

          k = 0.2622-0.3532 0.1991 (  8785 PWs)   bands (ev):

   -31.8142 -31.7459 -12.6664 -12.4865 -12.2939 -12.1972 -12.0561 -12.0034
     3.9366   5.3633   6.2332   6.5109

          k = 0.2622-0.3532 0.3318 (  8777 PWs)   bands (ev):

   -31.7923 -31.7674 -12.6795 -12.6111 -12.2284 -12.1411 -12.0604 -11.9914
     4.4471   5.0312   6.4163   6.4572

          k = 0.2622-0.1514 0.0664 (  8796 PWs)   bands (ev):

   -31.8604 -31.7212 -12.6887 -12.3354 -12.2425 -12.1827 -12.0254 -11.9741
     2.6952   5.0870   7.0174   7.0699

          k = 0.2622-0.1514 0.1991 (  8799 PWs)   bands (ev):

   -31.8417 -31.7400 -12.6822 -12.3563 -12.2215 -12.2071 -12.0107 -11.9870
     3.0351   4.9065   6.9379   7.1583

          k = 0.2622-0.1514 0.3318 (  8812 PWs)   bands (ev):

   -31.8095 -31.7722 -12.6260 -12.5083 -12.1455 -12.1095 -12.0736 -12.0180
     3.6392   4.3532   7.0758   7.2288

          k = 0.4370 0.7569 0.0664 (  8798 PWs)   bands (ev):

   -31.7958 -31.7512 -12.5554 -12.4256 -12.3649 -12.3020 -12.1793 -12.0203
     4.8421   5.0113   5.4540   6.6087

          k = 0.4370 0.7569 0.1991 (  8787 PWs)   bands (ev):

   -31.7896 -31.7568 -12.6686 -12.5416 -12.3633 -12.1571 -12.0891 -12.0322
     5.0288   5.2783   5.6361   6.2987

          k = 0.4370 0.7569 0.3318 (  8761 PWs)   bands (ev):

   -31.7788 -31.7668 -12.7149 -12.6697 -12.2738 -12.1712 -12.0358 -11.9910
     5.3762   5.6370   5.7888   5.8365

          k = 0.4370-0.2523 0.0664 (  8798 PWs)   bands (ev):

   -31.8155 -31.7393 -12.5928 -12.4357 -12.3223 -12.2936 -12.1339 -11.9782
     4.1131   5.3512   5.5448   6.6996

          k = 0.4370-0.2523 0.1991 (  8788 PWs)   bands (ev):

   -31.8051 -31.7492 -12.7006 -12.5145 -12.2523 -12.2399 -12.0339 -12.0215
     4.3686   5.4912   5.6938   6.3789

          k = 0.4370-0.2523 0.3318 (  8773 PWs)   bands (ev):

   -31.7871 -31.7667 -12.7245 -12.6564 -12.1801 -12.0956 -12.0945 -12.0180
     4.8124   5.3055   5.9609   6.1521

!    total energy              =    -151.51066554 Ry
     Harris-Foulkes estimate   =    -151.51066545 Ry
     estimated scf accuracy    <          1.0E-09 Ry

     The total energy is the sum of the following terms:

     one-electron contribution =     -43.27231636 Ry
     hartree contribution      =      28.57773431 Ry
     xc contribution           =     -23.78540017 Ry
     ewald contribution        =    -113.03068332 Ry

     convergence has been achieved in   7 iterations

     Forces acting on atoms (Ry/au):

     atom    1 type  2   force =     0.00000000    0.00000000    0.00000000
     atom    2 type  2   force =     0.00000000    0.00000000    0.00000000
     atom    3 type  1   force =    -0.00000000    0.00000000   -0.00000000
     atom    4 type  1   force =     0.00000000   -0.00000000    0.00000000
     atom    5 type  1   force =     0.00000000    0.00000000    0.00000000
     atom    6 type  1   force =    -0.00000000   -0.00000000   -0.00000000

     Total force =     0.000000     Total SCF correction =     0.000000


     entering subroutine stress ...

          total   stress  (Ry/bohr**3)                   (kbar)     P=  179.86
   0.00119126   0.00000000   0.00000000        175.24      0.00      0.00
   0.00000000   0.00119126   0.00000000          0.00    175.24      0.00
   0.00000000   0.00000000   0.00128543          0.00      0.00    189.09


     number of scf cycles    =   5
     number of bfgs steps    =   4

     enthalpy old            =    -151.0679662510 Ry
     enthalpy new            =    -151.0681827816 Ry

     CASE: enthalpy_new < enthalpy_old

     new trust radius        =       0.0232390303 bohr
     new conv_thr            =       0.0000000100 Ry

     new unit-cell volume =    362.52280 a.u.^3 (    53.72034 Ang^3 )

CELL_PARAMETERS (alat=  7.15200000)
   0.951724151   0.000000000  -0.000000000
  -0.475862076   0.824217292  -0.000000000
  -0.000000000  -0.000000000   1.263281095

ATOMIC_POSITIONS (crystal)
Ca       0.333333333   0.666666667   0.250000000
Ca       0.666666667   0.333333333   0.750000000
H        0.333333333   0.666666667   0.750000000
H        0.666666667   0.333333333   0.250000000
H        0.000000000   0.000000000  -0.000000000
H       -0.000000000  -0.000000000   0.500000000



     Writing output data file CaH2_18GPa-blyp-0180.save
     NEW-OLD atomic charge density approx. for the potential
     NEW k-points:
        k(    1) = (   0.0875604   0.1516590   0.0659658), wk =   0.0370370
        k(    2) = (   0.0875604   0.1516590   0.1978974), wk =   0.0370370
        k(    3) = (   0.0875604   0.1516590   0.3298289), wk =   0.0370370
        k(    4) = (   0.0875604   0.3538711   0.0659658), wk =   0.0740741
        k(    5) = (   0.0875604   0.3538711   0.1978974), wk =   0.0740741
        k(    6) = (   0.0875604   0.3538711   0.3298289), wk =   0.0740741
        k(    7) = (   0.0875604   0.5560831   0.0659658), wk =   0.0740741
        k(    8) = (   0.0875604   0.5560831   0.1978974), wk =   0.0740741
        k(    9) = (   0.0875604   0.5560831   0.3298289), wk =   0.0740741
        k(   10) = (   0.0875604  -0.4549771   0.0659658), wk =   0.0740741
        k(   11) = (   0.0875604  -0.4549771   0.1978974), wk =   0.0740741
        k(   12) = (   0.0875604  -0.4549771   0.3298289), wk =   0.0740741
        k(   13) = (   0.0875604  -0.2527651   0.0659658), wk =   0.0740741
        k(   14) = (   0.0875604  -0.2527651   0.1978974), wk =   0.0740741
        k(   15) = (   0.0875604  -0.2527651   0.3298289), wk =   0.0740741
        k(   16) = (   0.0875604  -0.0505530   0.0659658), wk =   0.0370370
        k(   17) = (   0.0875604  -0.0505530   0.1978974), wk =   0.0370370
        k(   18) = (   0.0875604  -0.0505530   0.3298289), wk =   0.0370370
        k(   19) = (   0.2626812   0.4549771   0.0659658), wk =   0.0370370
        k(   20) = (   0.2626812   0.4549771   0.1978974), wk =   0.0370370
        k(   21) = (   0.2626812   0.4549771   0.3298289), wk =   0.0370370
        k(   22) = (   0.2626812   0.6571892   0.0659658), wk =   0.0740741
        k(   23) = (   0.2626812   0.6571892   0.1978974), wk =   0.0740741
        k(   24) = (   0.2626812   0.6571892   0.3298289), wk =   0.0740741
        k(   25) = (   0.2626812  -0.3538711   0.0659658), wk =   0.0740741
        k(   26) = (   0.2626812  -0.3538711   0.1978974), wk =   0.0740741
        k(   27) = (   0.2626812  -0.3538711   0.3298289), wk =   0.0740741
        k(   28) = (   0.2626812  -0.1516590   0.0659658), wk =   0.0370370
        k(   29) = (   0.2626812  -0.1516590   0.1978974), wk =   0.0370370
        k(   30) = (   0.2626812  -0.1516590   0.3298289), wk =   0.0370370
        k(   31) = (   0.4378019   0.7582952   0.0659658), wk =   0.0370370
        k(   32) = (   0.4378019   0.7582952   0.1978974), wk =   0.0370370
        k(   33) = (   0.4378019   0.7582952   0.3298289), wk =   0.0370370
[...]
     number of atomic types    =            2
     number of electrons       =        24.00
     number of Kohn-Sham states=           12
     kinetic-energy cutoff     =     120.0000  Ry
     charge density cutoff     =     480.0000  Ry
     convergence threshold     =      1.0E-08
     mixing beta               =       0.3000
     number of iterations used =           16  local-TF  mixing
     Exchange-correlation      = BLYP ( 1 3 1 3 0)
     EXX-fraction              =        0.00

     celldm(1)=   7.152000  celldm(2)=   0.000000  celldm(3)=   1.250400
     celldm(4)=   0.000000  celldm(5)=   0.000000  celldm(6)=   0.000000

     crystal axes: (cart. coord. in units of alat)
               a(1) = (   0.950902   0.000000  -0.000000 )  
               a(2) = (  -0.475451   0.823506  -0.000000 )  
               a(3) = (  -0.000000  -0.000000   1.264511 )  

     reciprocal axes: (cart. coord. in units 2 pi/alat)
               b(1) = (  1.051633  0.607160  0.000000 )  
               b(2) = ( -0.000000  1.214321  0.000000 )  
               b(3) = (  0.000000  0.000000  0.790820 )  


     PseudoPot. # 1 for H  read from file:
     /home/ilia/espresso/pseudo/H.blyp-vbc.UPF
     MD5 check sum: 64d25ad537c4b939b17faee1147b797b
     Pseudo is Norm-conserving, Zval =  1.0
     Generated by new atomic code, or converted to UPF format
     Using radial grid of  243 points,  0 beta functions with: 

     PseudoPot. # 2 for Ca read from file:
     /home/ilia/espresso/pseudo/Ca.blyp-sp-hgh.UPF
     MD5 check sum: 357a6b692114ea82b84239caae8ecfc0
     Pseudo is Norm-conserving, Zval = 10.0
     Generated in analytical, separable form
     Using radial grid of 1169 points,  5 beta functions with: 
                l(1) =   0
                l(2) =   0
                l(3) =   1
                l(4) =   1
                l(5) =   2

     atomic species   valence    mass     pseudopotential
        H              1.00     1.00700     H ( 1.00)
        Ca            10.00    40.07800     Ca( 1.00)

     24 Sym. Ops., with inversion, found (12 have fractional translation)



   Cartesian axes

     site n.     atom                  positions (alat units)
         1           Ca  tau(   1) = (  -0.0000000   0.5490038   0.3161276  )
         2           Ca  tau(   2) = (   0.4754512   0.2745019   0.9483829  )
         3           H   tau(   3) = (  -0.0000000   0.5490038   0.9483829  )
         4           H   tau(   4) = (   0.4754512   0.2745019   0.3161276  )
         5           H   tau(   5) = (   0.0000000   0.0000000  -0.0000000  )
         6           H   tau(   6) = (  -0.0000000  -0.0000000   0.6322553  )

     number of k points=    36
                       cart. coord. in units 2pi/alat
        k(    1) = (   0.0876361   0.1517901   0.0659016), wk =   0.0370370
        k(    2) = (   0.0876361   0.1517901   0.1977049), wk =   0.0370370
        k(    3) = (   0.0876361   0.1517901   0.3295082), wk =   0.0370370
        k(    4) = (   0.0876361   0.3541769   0.0659016), wk =   0.0740741
        k(    5) = (   0.0876361   0.3541769   0.1977049), wk =   0.0740741
        k(    6) = (   0.0876361   0.3541769   0.3295082), wk =   0.0740741
        k(    7) = (   0.0876361   0.5565637   0.0659016), wk =   0.0740741
        k(    8) = (   0.0876361   0.5565637   0.1977049), wk =   0.0740741
        k(    9) = (   0.0876361   0.5565637   0.3295082), wk =   0.0740741
        k(   10) = (   0.0876361  -0.4553703   0.0659016), wk =   0.0740741
        k(   11) = (   0.0876361  -0.4553703   0.1977049), wk =   0.0740741
        k(   12) = (   0.0876361  -0.4553703   0.3295082), wk =   0.0740741
        k(   13) = (   0.0876361  -0.2529835   0.0659016), wk =   0.0740741
        k(   14) = (   0.0876361  -0.2529835   0.1977049), wk =   0.0740741
        k(   15) = (   0.0876361  -0.2529835   0.3295082), wk =   0.0740741
        k(   16) = (   0.0876361  -0.0505967   0.0659016), wk =   0.0370370
        k(   17) = (   0.0876361  -0.0505967   0.1977049), wk =   0.0370370
        k(   18) = (   0.0876361  -0.0505967   0.3295082), wk =   0.0370370
        k(   19) = (   0.2629082   0.4553703   0.0659016), wk =   0.0370370
        k(   20) = (   0.2629082   0.4553703   0.1977049), wk =   0.0370370
        k(   21) = (   0.2629082   0.4553703   0.3295082), wk =   0.0370370
        k(   22) = (   0.2629082   0.6577571   0.0659016), wk =   0.0740741
        k(   23) = (   0.2629082   0.6577571   0.1977049), wk =   0.0740741
        k(   24) = (   0.2629082   0.6577571   0.3295082), wk =   0.0740741
        k(   25) = (   0.2629082  -0.3541769   0.0659016), wk =   0.0740741
        k(   26) = (   0.2629082  -0.3541769   0.1977049), wk =   0.0740741
        k(   27) = (   0.2629082  -0.3541769   0.3295082), wk =   0.0740741
        k(   28) = (   0.2629082  -0.1517901   0.0659016), wk =   0.0370370
        k(   29) = (   0.2629082  -0.1517901   0.1977049), wk =   0.0370370
        k(   30) = (   0.2629082  -0.1517901   0.3295082), wk =   0.0370370
        k(   31) = (   0.4381803   0.7589505   0.0659016), wk =   0.0370370
        k(   32) = (   0.4381803   0.7589505   0.1977049), wk =   0.0370370
        k(   33) = (   0.4381803   0.7589505   0.3295082), wk =   0.0370370
        k(   34) = (   0.4381803  -0.2529835   0.0659016), wk =   0.0370370
        k(   35) = (   0.4381803  -0.2529835   0.1977049), wk =   0.0370370
        k(   36) = (   0.4381803  -0.2529835   0.3295082), wk =   0.0370370

     Dense  grid:    64365 G-vectors     FFT dimensions: (  48,  48,  64)

     Largest allocated arrays     est. size (Mb)     dimensions
        Kohn-Sham Wavefunctions         1.48 Mb     (   8069,   12)
        NL pseudopotentials             3.20 Mb     (   8069,   26)
        Each V/rho on FFT grid          2.25 Mb     ( 147456)
        Each G-vector array             0.49 Mb     (  64365)
        G-vector shells                 0.02 Mb     (   2856)
     Largest temporary arrays     est. size (Mb)     dimensions
        Auxiliary wavefunctions         5.91 Mb     (   8069,   48)
        Each subspace H/S matrix        0.04 Mb     (  48,  48)
        Each <psi_i|beta_j> matrix      0.00 Mb     (     26,   12)
        Arrays for rho mixing          36.00 Mb     ( 147456,  16)

     Initial potential from superposition of free atoms

     starting charge   23.98928, renormalised to   24.00000
     Starting wfc are   30 randomized atomic wfcs

     Writing output data file CaH2_18GPa-blyp-0180.save

     total cpu time spent up to now is     2174.6 secs

     per-process dynamical memory:    46.4 Mb

     Self-consistent Calculation

     iteration #  1     ecut=   120.00 Ry     beta=0.30
     Davidson diagonalization with overlap
     ethr =  1.00E-06,  avg # of iterations =  8.2

     total cpu time spent up to now is     2222.1 secs

     total energy              =    -151.54790602 Ry
     Harris-Foulkes estimate   =    -151.58007692 Ry
     estimated scf accuracy    <       0.27962058 Ry

     iteration #  2     ecut=   120.00 Ry     beta=0.30
     Davidson diagonalization with overlap
     ethr =  1.17E-03,  avg # of iterations =  1.0

     total cpu time spent up to now is     2237.4 secs

     total energy              =    -151.48510661 Ry
     Harris-Foulkes estimate   =    -151.54925801 Ry
     estimated scf accuracy    <       0.16263228 Ry

     iteration #  3     ecut=   120.00 Ry     beta=0.30
     Davidson diagonalization with overlap
     ethr =  6.78E-04,  avg # of iterations =  3.0

     total cpu time spent up to now is     2255.7 secs

     total energy              =    -151.50893228 Ry
     Harris-Foulkes estimate   =    -151.50942304 Ry
     estimated scf accuracy    <       0.00318810 Ry

     iteration #  4     ecut=   120.00 Ry     beta=0.30
     Davidson diagonalization with overlap
     ethr =  1.33E-05,  avg # of iterations =  4.1

     total cpu time spent up to now is     2276.0 secs

     total energy              =    -151.51044537 Ry
     Harris-Foulkes estimate   =    -151.51035733 Ry
     estimated scf accuracy    <       0.00102958 Ry

     iteration #  5     ecut=   120.00 Ry     beta=0.30
     Davidson diagonalization with overlap
     ethr =  4.29E-06,  avg # of iterations =  2.7

     total cpu time spent up to now is     2294.4 secs

     total energy              =    -151.51061070 Ry
     Harris-Foulkes estimate   =    -151.51065181 Ry
     estimated scf accuracy    <       0.00010484 Ry

     iteration #  6     ecut=   120.00 Ry     beta=0.30
     Davidson diagonalization with overlap
     ethr =  4.37E-07,  avg # of iterations =  2.9

     total cpu time spent up to now is     2313.6 secs

     total energy              =    -151.51063698 Ry
     Harris-Foulkes estimate   =    -151.51063732 Ry
     estimated scf accuracy    <       0.00001078 Ry

     iteration #  7     ecut=   120.00 Ry     beta=0.30
     Davidson diagonalization with overlap
     ethr =  4.49E-08,  avg # of iterations =  3.5

     total cpu time spent up to now is     2336.3 secs

     total energy              =    -151.51063965 Ry
     Harris-Foulkes estimate   =    -151.51063964 Ry
     estimated scf accuracy    <       0.00000107 Ry

     iteration #  8     ecut=   120.00 Ry     beta=0.30
     Davidson diagonalization with overlap
     ethr =  4.47E-09,  avg # of iterations =  3.1

     total cpu time spent up to now is     2354.2 secs

     total energy              =    -151.51063977 Ry
     Harris-Foulkes estimate   =    -151.51063982 Ry
     estimated scf accuracy    <       0.00000020 Ry

     iteration #  9     ecut=   120.00 Ry     beta=0.30
     Davidson diagonalization with overlap
     ethr =  8.15E-10,  avg # of iterations =  3.5

     total cpu time spent up to now is     2372.7 secs

     total energy              =    -151.51063980 Ry
     Harris-Foulkes estimate   =    -151.51063982 Ry
     estimated scf accuracy    <       0.00000005 Ry

     iteration # 10     ecut=   120.00 Ry     beta=0.30
     Davidson diagonalization with overlap
     ethr =  1.99E-10,  avg # of iterations =  2.1

     total cpu time spent up to now is     2391.8 secs

     End of self-consistent calculation

          k = 0.0876 0.1518 0.0659 (  8038 PWs)   bands (ev):

   -31.8936 -31.7284 -12.7729 -12.2359 -12.2162 -12.0839 -11.9932 -11.9907
     1.9962   4.8021   7.2597   8.2372

          k = 0.0876 0.1518 0.1977 (  8025 PWs)   bands (ev):

   -31.8715 -31.7506 -12.7033 -12.2304 -12.1916 -12.1749 -12.0206 -11.9945
     2.3674   4.4768   7.3777   8.2968

          k = 0.0876 0.1518 0.3295 (  8036 PWs)   bands (ev):

   -31.8334 -31.7892 -12.5719 -12.4000 -12.1309 -12.1192 -12.0720 -12.0439
     3.0253   3.8089   7.7785   8.1911

          k = 0.0876 0.3542 0.0659 (  8036 PWs)   bands (ev):

   -31.8543 -31.7377 -12.6568 -12.3875 -12.2973 -12.2249 -12.0747 -11.9998
     3.0994   5.2149   6.5542   6.8535

          k = 0.0876 0.3542 0.1977 (  8030 PWs)   bands (ev):

   -31.8385 -31.7533 -12.6854 -12.4310 -12.2546 -12.2267 -12.0423 -12.0120
     3.4106   5.1020   6.6391   6.7366

          k = 0.0876 0.3542 0.3295 (  8040 PWs)   bands (ev):

   -31.8115 -31.7803 -12.6620 -12.5686 -12.1859 -12.1199 -12.0999 -12.0268
     3.9650   4.6196   6.7327   6.8210

          k = 0.0876 0.5566 0.0659 (  8055 PWs)   bands (ev):

   -31.8148 -31.7554 -12.5937 -12.4392 -12.3615 -12.3097 -12.1752 -12.0076
     4.5125   5.1734   5.4487   6.5811

          k = 0.0876 0.5566 0.1977 (  8047 PWs)   bands (ev):

   -31.8066 -31.7631 -12.7040 -12.5426 -12.3112 -12.2165 -12.0775 -12.0392
     4.7351   5.3887   5.5828   6.2618

          k = 0.0876 0.5566 0.3295 (  8033 PWs)   bands (ev):

   -31.7925 -31.7766 -12.7361 -12.6775 -12.2258 -12.1370 -12.0905 -12.0284
     5.1151   5.5185   5.7151   5.9368

          k = 0.0876-0.4554 0.0659 (  8047 PWs)   bands (ev):

   -31.8315 -31.7466 -12.6027 -12.4480 -12.3257 -12.2856 -12.1310 -12.0046
     3.8082   5.3511   5.8572   6.6771

          k = 0.0876-0.4554 0.1977 (  8044 PWs)   bands (ev):

   -31.8199 -31.7579 -12.6922 -12.5061 -12.2904 -12.2261 -12.0598 -12.0297
     4.0782   5.3997   6.0046   6.4189

          k = 0.0876-0.4554 0.3295 (  8045 PWs)   bands (ev):

   -31.8001 -31.7774 -12.7081 -12.6390 -12.2113 -12.1290 -12.0971 -12.0264
     4.5540   5.0990   6.2082   6.3215

          k = 0.0876-0.2530 0.0659 (  8037 PWs)   bands (ev):

   -31.8764 -31.7317 -12.7215 -12.3008 -12.2598 -12.1535 -12.0256 -11.9949
     2.4686   5.0074   7.0669   7.3602

          k = 0.0876-0.2530 0.1977 (  8034 PWs)   bands (ev):

   -31.8570 -31.7511 -12.6913 -12.3304 -12.2193 -12.2055 -12.0297 -11.9969
     2.8144   4.7636   7.0362   7.4622

          k = 0.0876-0.2530 0.3295 (  8023 PWs)   bands (ev):

   -31.8234 -31.7848 -12.6121 -12.4817 -12.1563 -12.1201 -12.0872 -12.0326
     3.4299   4.1634   7.2565   7.4803

          k = 0.0876-0.0506 0.0659 (  8044 PWs)   bands (ev):

   -31.9029 -31.7271 -12.8008 -12.2022 -12.1908 -12.0333 -11.9891 -11.9807
     1.7434   4.6764   7.3728   8.9618

          k = 0.0876-0.0506 0.1977 (  8022 PWs)   bands (ev):

   -31.8795 -31.7508 -12.7121 -12.1728 -12.1640 -12.1550 -12.0163 -12.0029
     2.1282   4.3142   7.5940   8.9851

          k = 0.0876-0.0506 0.3295 (  8050 PWs)   bands (ev):

   -31.8390 -31.7919 -12.5503 -12.3485 -12.1174 -12.1157 -12.0633 -12.0540
     2.8080   3.6160   8.1438   8.7468

          k = 0.2629 0.4554 0.0659 (  8041 PWs)   bands (ev):

   -31.8151 -31.7550 -12.5417 -12.4801 -12.3383 -12.3167 -12.1621 -12.0519
     4.2413   5.4021   5.6615   6.5865

          k = 0.2629 0.4554 0.1977 (  8047 PWs)   bands (ev):

   -31.8069 -31.7628 -12.6526 -12.5465 -12.3649 -12.1848 -12.1005 -12.0463
     4.4916   5.5389   5.8487   6.3096

          k = 0.2629 0.4554 0.3295 (  8059 PWs)   bands (ev):

   -31.7927 -31.7766 -12.6963 -12.6542 -12.2931 -12.1962 -12.0541 -12.0064
     4.9259   5.4003   6.0794   6.1513

          k = 0.2629 0.6578 0.0659 (  8043 PWs)   bands (ev):

   -31.7976 -31.7666 -12.5223 -12.4685 -12.3823 -12.3055 -12.2114 -12.0674
     4.7745   5.2766   5.4290   6.5233

          k = 0.2629 0.6578 0.1977 (  8055 PWs)   bands (ev):

   -31.7932 -31.7705 -12.6354 -12.5653 -12.4161 -12.1507 -12.1231 -12.0699
     4.9832   5.5017   5.6218   6.2619

          k = 0.2629 0.6578 0.3295 (  8069 PWs)   bands (ev):

   -31.7858 -31.7776 -12.6980 -12.6721 -12.3287 -12.2216 -12.0355 -12.0080
     5.3414   5.7115   5.8117   5.9407

          k = 0.2629-0.3542 0.0659 (  8044 PWs)   bands (ev):

   -31.8354 -31.7448 -12.6017 -12.4315 -12.3427 -12.2599 -12.1141 -12.0253
     3.6459   5.3386   6.0733   6.7051

          k = 0.2629-0.3542 0.1977 (  8042 PWs)   bands (ev):

   -31.8232 -31.7568 -12.6733 -12.4971 -12.3021 -12.2144 -12.0720 -12.0239
     3.9285   5.3514   6.2317   6.4662

          k = 0.2629-0.3542 0.3295 (  8044 PWs)   bands (ev):

   -31.8020 -31.7778 -12.6853 -12.6184 -12.2388 -12.1553 -12.0797 -12.0127
     4.4286   5.0051   6.3993   6.4369

          k = 0.2629-0.1518 0.0659 (  8050 PWs)   bands (ev):

   -31.8687 -31.7336 -12.6988 -12.3458 -12.2476 -12.1984 -12.0442 -11.9892
     2.6881   5.0865   6.9805   7.0424

          k = 0.2629-0.1518 0.1977 (  8037 PWs)   bands (ev):

   -31.8505 -31.7517 -12.6901 -12.3680 -12.2355 -12.2136 -12.0244 -12.0072
     3.0215   4.8857   6.8928   7.1582

          k = 0.2629-0.1518 0.3295 (  8025 PWs)   bands (ev):

   -31.8192 -31.7830 -12.6330 -12.5167 -12.1542 -12.1269 -12.0849 -12.0377
     3.6158   4.3229   7.0498   7.2142

          k = 0.4382 0.7590 0.0659 (  8051 PWs)   bands (ev):

   -31.8049 -31.7615 -12.5662 -12.4357 -12.3797 -12.3135 -12.1974 -12.0385
     4.8452   5.0185   5.4618   6.5433

          k = 0.4382 0.7590 0.1977 (  8046 PWs)   bands (ev):

   -31.7988 -31.7671 -12.6762 -12.5515 -12.3722 -12.1751 -12.1080 -12.0517
     5.0254   5.2763   5.6340   6.2475

          k = 0.4382 0.7590 0.3295 (  8044 PWs)   bands (ev):

   -31.7885 -31.7769 -12.7207 -12.6764 -12.2850 -12.1857 -12.0571 -12.0132
     5.3605   5.6224   5.7749   5.8052

          k = 0.4382-0.2530 0.0659 (  8047 PWs)   bands (ev):

   -31.8242 -31.7502 -12.6031 -12.4502 -12.3391 -12.2987 -12.1523 -11.9946
     4.1135   5.3596   5.5486   6.6303

          k = 0.4382-0.2530 0.1977 (  8041 PWs)   bands (ev):

   -31.8140 -31.7600 -12.7080 -12.5259 -12.2589 -12.2584 -12.0559 -12.0363
     4.3620   5.4841   5.6890   6.3316

          k = 0.4382-0.2530 0.3295 (  8045 PWs)   bands (ev):

   -31.7968 -31.7769 -12.7308 -12.6641 -12.1893 -12.1159 -12.1078 -12.0408
     4.7948   5.2799   5.9465   6.1288

!    total energy              =    -151.51063981 Ry
     Harris-Foulkes estimate   =    -151.51063981 Ry
     estimated scf accuracy    <          3.9E-09 Ry

     The total energy is the sum of the following terms:

     one-electron contribution =     -43.34996288 Ry
     hartree contribution      =      28.60391127 Ry
     xc contribution           =     -23.78508983 Ry
     ewald contribution        =    -112.97949837 Ry

     convergence has been achieved in  10 iterations

     Forces acting on atoms (Ry/au):

     atom    1 type  2   force =     0.00000000    0.00000000    0.00000000
     atom    2 type  2   force =    -0.00000000   -0.00000000   -0.00000000
     atom    3 type  1   force =     0.00000000    0.00000000    0.00000000
     atom    4 type  1   force =     0.00000000   -0.00000000    0.00000000
     atom    5 type  1   force =    -0.00000000    0.00000000   -0.00000000
     atom    6 type  1   force =    -0.00000000    0.00000000    0.00000000

     Total force =     0.000000     Total SCF correction =     0.000000


     entering subroutine stress ...

          total   stress  (Ry/bohr**3)                   (kbar)     P=  178.29
   0.00120758  -0.00000000  -0.00000000        177.64     -0.00     -0.00
  -0.00000000   0.00120758  -0.00000000         -0.00    177.64     -0.00
   0.00000000   0.00000000   0.00122084          0.00      0.00    179.59


     Writing output data file CaH2_18GPa-blyp-0180.save

     init_run     :     87.38s CPU     89.65s WALL (       2 calls)
     electrons    :   1431.17s CPU   1474.93s WALL (       8 calls)
     update_pot   :    315.26s CPU    319.71s WALL (       6 calls)
     forces       :    148.45s CPU    150.37s WALL (       8 calls)
     stress       :    370.77s CPU    376.18s WALL (       8 calls)

     Called by init_run:
     wfcinit      :     40.40s CPU     41.83s WALL (       2 calls)
     potinit      :     18.79s CPU     19.37s WALL (       2 calls)

     Called by electrons:
     c_bands      :   1218.13s CPU   1253.54s WALL (      62 calls)
     sum_band     :    179.79s CPU    186.29s WALL (      62 calls)
     v_of_rho     :     16.69s CPU     17.37s WALL (      68 calls)
     mix_rho      :     17.75s CPU     18.64s WALL (      62 calls)

     Called by c_bands:
     init_us_2    :     84.43s CPU     86.95s WALL (    5112 calls)
     cegterg      :   1142.10s CPU   1166.61s WALL (    2232 calls)

     Called by *egterg:
     h_psi        :    885.39s CPU    904.74s WALL (    9141 calls)
     g_psi        :      7.22s CPU      7.42s WALL (    6837 calls)
     cdiaghg      :      5.15s CPU      5.27s WALL (    8781 calls)

     Called by h_psi:
     add_vuspsi   :     78.77s CPU     80.38s WALL (    9141 calls)

     General routines
     calbec       :     86.82s CPU     88.63s WALL (    9717 calls)
     fft          :      4.74s CPU      4.85s WALL (     814 calls)
     ffts         :      6.06s CPU      6.10s WALL (    1050 calls)
     fftw         :    619.74s CPU    632.85s WALL (  187216 calls)
     davcio       :      1.20s CPU     12.82s WALL (    7344 calls)


     PWSCF        : 39m14.20s CPU    40m12.20s WALL


   This run was terminated on:   1:19:18  15Jun2014            

=------------------------------------------------------------------------------=
   JOB DONE.
=------------------------------------------------------------------------------=
