
     Program PWSCF v.5.0.2 (svn rev. 9392) starts on 15Jun2014 at  5:10:31 

     This program is part of the open-source Quantum ESPRESSO suite
     for quantum simulation of materials; please cite
         "P. Giannozzi et al., J. Phys.:Condens. Matter 21 395502 (2009);
          URL http://www.quantum-espresso.org", 
     in publications or presentations arising from this work. More details at
     http://www.quantum-espresso.org/quote.php

     Serial version

     Current dimensions of program PWSCF are:
     Max number of different atomic species (ntypx) = 10
     Max number of k-points (npk) =  40000
     Max angular momentum in pseudopotentials (lmaxx) =  3
     Waiting for input...
     Reading input from standard input

     G-vector sticks info
     --------------------
     sticks:   dense  smooth     PW     G-vecs:    dense   smooth      PW
     Sum        1675    1675    499                70221    70221   10875



     bravais-lattice index     =            4
     lattice parameter (alat)  =       7.1520  a.u.
     unit-cell volume          =     396.1522 (a.u.)^3
     number of atoms/cell      =            6
     number of atomic types    =            2
     number of electrons       =        24.00
     number of Kohn-Sham states=           12
     kinetic-energy cutoff     =     120.0000  Ry
     charge density cutoff     =     480.0000  Ry
     convergence threshold     =      1.0E-06
     mixing beta               =       0.3000
     number of iterations used =           16  local-TF  mixing
     Exchange-correlation      = BLYP ( 1 3 1 3 0)
     EXX-fraction              =        0.00
     nstep                     =           50


     celldm(1)=   7.152000  celldm(2)=   0.000000  celldm(3)=   1.250400
     celldm(4)=   0.000000  celldm(5)=   0.000000  celldm(6)=   0.000000

     crystal axes: (cart. coord. in units of alat)
               a(1) = (   1.000000   0.000000   0.000000 )  
               a(2) = (  -0.500000   0.866025   0.000000 )  
               a(3) = (   0.000000   0.000000   1.250400 )  

     reciprocal axes: (cart. coord. in units 2 pi/alat)
               b(1) = (  1.000000  0.577350 -0.000000 )  
               b(2) = (  0.000000  1.154701  0.000000 )  
               b(3) = (  0.000000 -0.000000  0.799744 )  


     PseudoPot. # 1 for H  read from file:
     /home/ilia/espresso/pseudo/H.blyp-vbc.UPF
     MD5 check sum: 64d25ad537c4b939b17faee1147b797b
     Pseudo is Norm-conserving, Zval =  1.0
     Generated by new atomic code, or converted to UPF format
     Using radial grid of  243 points,  0 beta functions with: 

     PseudoPot. # 2 for Ca read from file:
     /home/ilia/espresso/pseudo/Ca.blyp-sp-hgh.UPF
     MD5 check sum: 357a6b692114ea82b84239caae8ecfc0
     Pseudo is Norm-conserving, Zval = 10.0
     Generated in analytical, separable form
     Using radial grid of 1169 points,  5 beta functions with: 
                l(1) =   0
                l(2) =   0
                l(3) =   1
                l(4) =   1
                l(5) =   2

     atomic species   valence    mass     pseudopotential
        H              1.00     1.00700     H ( 1.00)
        Ca            10.00    40.07800     Ca( 1.00)

     24 Sym. Ops., with inversion, found (12 have fractional translation)



   Cartesian axes

     site n.     atom                  positions (alat units)
         1           Ca  tau(   1) = (   0.0000000   0.5773503   0.3126000  )
         2           Ca  tau(   2) = (   0.5000000   0.2886751   0.9378000  )
         3           H   tau(   3) = (   0.0000000   0.5773503   0.9378000  )
         4           H   tau(   4) = (   0.5000000   0.2886751   0.3126000  )
         5           H   tau(   5) = (   0.0000000   0.0000000   0.0000000  )
         6           H   tau(   6) = (   0.0000000   0.0000000   0.6252000  )

     number of k points=    36
                       cart. coord. in units 2pi/alat
        k(    1) = (   0.0833333   0.1443376   0.0666453), wk =   0.0370370
        k(    2) = (   0.0833333   0.1443376   0.1999360), wk =   0.0370370
        k(    3) = (   0.0833333   0.1443376   0.3332267), wk =   0.0370370
        k(    4) = (   0.0833333   0.3367877   0.0666453), wk =   0.0740741
        k(    5) = (   0.0833333   0.3367877   0.1999360), wk =   0.0740741
        k(    6) = (   0.0833333   0.3367877   0.3332267), wk =   0.0740741
        k(    7) = (   0.0833333   0.5292377   0.0666453), wk =   0.0740741
        k(    8) = (   0.0833333   0.5292377   0.1999360), wk =   0.0740741
        k(    9) = (   0.0833333   0.5292377   0.3332267), wk =   0.0740741
        k(   10) = (   0.0833333  -0.4330127   0.0666453), wk =   0.0740741
        k(   11) = (   0.0833333  -0.4330127   0.1999360), wk =   0.0740741
        k(   12) = (   0.0833333  -0.4330127   0.3332267), wk =   0.0740741
        k(   13) = (   0.0833333  -0.2405626   0.0666453), wk =   0.0740741
        k(   14) = (   0.0833333  -0.2405626   0.1999360), wk =   0.0740741
        k(   15) = (   0.0833333  -0.2405626   0.3332267), wk =   0.0740741
        k(   16) = (   0.0833333  -0.0481125   0.0666453), wk =   0.0370370
        k(   17) = (   0.0833333  -0.0481125   0.1999360), wk =   0.0370370
        k(   18) = (   0.0833333  -0.0481125   0.3332267), wk =   0.0370370
        k(   19) = (   0.2500000   0.4330127   0.0666453), wk =   0.0370370
        k(   20) = (   0.2500000   0.4330127   0.1999360), wk =   0.0370370
        k(   21) = (   0.2500000   0.4330127   0.3332267), wk =   0.0370370
        k(   22) = (   0.2500000   0.6254628   0.0666453), wk =   0.0740741
        k(   23) = (   0.2500000   0.6254628   0.1999360), wk =   0.0740741
        k(   24) = (   0.2500000   0.6254628   0.3332267), wk =   0.0740741
        k(   25) = (   0.2500000  -0.3367877   0.0666453), wk =   0.0740741
        k(   26) = (   0.2500000  -0.3367877   0.1999360), wk =   0.0740741
        k(   27) = (   0.2500000  -0.3367877   0.3332267), wk =   0.0740741
        k(   28) = (   0.2500000  -0.1443376   0.0666453), wk =   0.0370370
        k(   29) = (   0.2500000  -0.1443376   0.1999360), wk =   0.0370370
        k(   30) = (   0.2500000  -0.1443376   0.3332267), wk =   0.0370370
        k(   31) = (   0.4166667   0.7216878   0.0666453), wk =   0.0370370
        k(   32) = (   0.4166667   0.7216878   0.1999360), wk =   0.0370370
        k(   33) = (   0.4166667   0.7216878   0.3332267), wk =   0.0370370
        k(   34) = (   0.4166667  -0.2405626   0.0666453), wk =   0.0370370
        k(   35) = (   0.4166667  -0.2405626   0.1999360), wk =   0.0370370
        k(   36) = (   0.4166667  -0.2405626   0.3332267), wk =   0.0370370

     Dense  grid:    70221 G-vectors     FFT dimensions: (  50,  50,  64)

     Largest allocated arrays     est. size (Mb)     dimensions
        Kohn-Sham Wavefunctions         1.62 Mb     (   8823,   12)
        NL pseudopotentials             3.50 Mb     (   8823,   26)
        Each V/rho on FFT grid          2.44 Mb     ( 160000)
        Each G-vector array             0.54 Mb     (  70221)
        G-vector shells                 0.54 Mb     (  70221)
     Largest temporary arrays     est. size (Mb)     dimensions
        Auxiliary wavefunctions         6.46 Mb     (   8823,   48)
        Each subspace H/S matrix        0.04 Mb     (  48,  48)
        Each <psi_i|beta_j> matrix      0.00 Mb     (     26,   12)
        Arrays for rho mixing          39.06 Mb     ( 160000,  16)

     Initial potential from superposition of free atoms

     starting charge   23.98928, renormalised to   24.00000
     Starting wfc are   30 randomized atomic wfcs

     total cpu time spent up to now is       65.7 secs

     per-process dynamical memory:    38.9 Mb

     Self-consistent Calculation

     iteration #  1     ecut=   120.00 Ry     beta=0.30
     Davidson diagonalization with overlap
     ethr =  1.00E-02,  avg # of iterations =  2.0

     Threshold (ethr) on eigenvalues was too large:
     Diagonalizing with lowered threshold

     Davidson diagonalization with overlap
     ethr =  9.46E-04,  avg # of iterations =  1.5

     total cpu time spent up to now is      108.4 secs

     total energy              =    -151.57225362 Ry
     Harris-Foulkes estimate   =    -151.59791152 Ry
     estimated scf accuracy    <       0.24273938 Ry

     iteration #  2     ecut=   120.00 Ry     beta=0.30
     Davidson diagonalization with overlap
     ethr =  1.01E-03,  avg # of iterations =  1.0

     total cpu time spent up to now is      128.6 secs

     total energy              =    -151.50927203 Ry
     Harris-Foulkes estimate   =    -151.57351341 Ry
     estimated scf accuracy    <       0.15476846 Ry

     iteration #  3     ecut=   120.00 Ry     beta=0.30
     Davidson diagonalization with overlap
     ethr =  6.45E-04,  avg # of iterations =  2.6

     total cpu time spent up to now is      152.6 secs

     total energy              =    -151.53284486 Ry
     Harris-Foulkes estimate   =    -151.53644127 Ry
     estimated scf accuracy    <       0.01167930 Ry

     iteration #  4     ecut=   120.00 Ry     beta=0.30
     Davidson diagonalization with overlap
     ethr =  4.87E-05,  avg # of iterations =  3.0

     total cpu time spent up to now is      176.7 secs

     total energy              =    -151.53455051 Ry
     Harris-Foulkes estimate   =    -151.53679175 Ry
     estimated scf accuracy    <       0.00612978 Ry

     iteration #  5     ecut=   120.00 Ry     beta=0.30
     Davidson diagonalization with overlap
     ethr =  2.55E-05,  avg # of iterations =  3.6

     total cpu time spent up to now is      202.1 secs

     total energy              =    -151.53572127 Ry
     Harris-Foulkes estimate   =    -151.53577040 Ry
     estimated scf accuracy    <       0.00012997 Ry

     iteration #  6     ecut=   120.00 Ry     beta=0.30
     Davidson diagonalization with overlap
     ethr =  5.42E-07,  avg # of iterations =  4.1

     total cpu time spent up to now is      231.8 secs

     total energy              =    -151.53579169 Ry
     Harris-Foulkes estimate   =    -151.53579071 Ry
     estimated scf accuracy    <       0.00000918 Ry

     iteration #  7     ecut=   120.00 Ry     beta=0.30
     Davidson diagonalization with overlap
     ethr =  3.83E-08,  avg # of iterations =  3.4

     total cpu time spent up to now is      263.5 secs

     total energy              =    -151.53579453 Ry
     Harris-Foulkes estimate   =    -151.53579447 Ry
     estimated scf accuracy    <       0.00000160 Ry

     iteration #  8     ecut=   120.00 Ry     beta=0.30
     Davidson diagonalization with overlap
     ethr =  6.65E-09,  avg # of iterations =  2.1

     total cpu time spent up to now is      285.7 secs

     End of self-consistent calculation

          k = 0.0833 0.1443 0.0666 (  8810 PWs)   bands (ev):

   -33.1257 -32.9918 -13.8893 -13.4885 -13.4828 -13.3405 -13.2703 -13.2692
     1.2957   4.0372   6.7097   7.1126

          k = 0.0833 0.1443 0.1999 (  8821 PWs)   bands (ev):

   -33.1078 -33.0098 -13.8391 -13.4690 -13.4465 -13.4417 -13.2986 -13.2679
     1.6738   3.7687   6.7165   7.2435

          k = 0.0833 0.1443 0.3332 (  8822 PWs)   bands (ev):

   -33.0768 -33.0408 -13.7397 -13.6035 -13.4037 -13.3792 -13.3476 -13.3113
     2.3432   3.1315   7.0039   7.2799

          k = 0.0833 0.3368 0.0666 (  8795 PWs)   bands (ev):

   -33.0984 -33.0039 -13.8034 -13.5745 -13.5268 -13.4480 -13.3285 -13.2686
     2.2578   4.3245   5.5995   6.3661

          k = 0.0833 0.3368 0.1999 (  8792 PWs)   bands (ev):

   -33.0855 -33.0165 -13.8312 -13.6124 -13.4953 -13.4502 -13.3055 -13.2694
     2.5895   4.2747   5.7693   6.0779

          k = 0.0833 0.3368 0.3332 (  8800 PWs)   bands (ev):

   -33.0635 -33.0383 -13.8140 -13.7343 -13.4380 -13.3678 -13.3464 -13.2779
     3.1753   3.8455   5.9541   6.0143

          k = 0.0833 0.5292 0.0666 (  8793 PWs)   bands (ev):

   -33.0698 -33.0215 -13.7376 -13.6132 -13.5419 -13.5402 -13.3974 -13.2689
     3.5564   4.1612   4.5989   6.1385

          k = 0.0833 0.5292 0.1999 (  8782 PWs)   bands (ev):

   -33.0630 -33.0276 -13.8347 -13.6993 -13.5347 -13.4314 -13.3162 -13.2922
     3.8234   4.4132   4.7510   5.7032

          k = 0.0833 0.5292 0.3332 (  8761 PWs)   bands (ev):

   -33.0515 -33.0385 -13.8646 -13.8157 -13.4631 -13.3824 -13.3215 -13.2705
     4.2757   4.6750   4.8755   5.1872

          k = 0.0833-0.4330 0.0666 (  8788 PWs)   bands (ev):

   -33.0820 -33.0132 -13.7585 -13.6116 -13.5379 -13.4997 -13.3685 -13.2687
     2.8981   4.3952   4.9560   6.2187

          k = 0.0833-0.4330 0.1999 (  8788 PWs)   bands (ev):

   -33.0726 -33.0222 -13.8321 -13.6693 -13.5201 -13.4412 -13.3108 -13.2825
     3.1987   4.5012   5.1342   5.8304

          k = 0.0833-0.4330 0.3332 (  8779 PWs)   bands (ev):

   -33.0564 -33.0380 -13.8464 -13.7867 -13.4539 -13.3770 -13.3311 -13.2718
     3.7222   4.2880   5.3846   5.5659

          k = 0.0833-0.2406 0.0666 (  8796 PWs)   bands (ev):

   -33.1138 -32.9966 -13.8516 -13.5250 -13.5074 -13.3927 -13.2925 -13.2692
     1.7033   4.1826   6.3354   6.5469

          k = 0.0833-0.2406 0.1999 (  8800 PWs)   bands (ev):

   -33.0980 -33.0123 -13.8342 -13.5394 -13.4675 -13.4516 -13.3014 -13.2627
     2.0617   4.0012   6.3932   6.4924

          k = 0.0833-0.2406 0.3332 (  8820 PWs)   bands (ev):

   -33.0708 -33.0395 -13.7751 -13.6683 -13.4195 -13.3646 -13.3563 -13.2914
     2.6967   3.4394   6.4976   6.6117

          k = 0.0833-0.0481 0.0666 (  8823 PWs)   bands (ev):

   -33.1321 -32.9896 -13.9097 -13.4706 -13.4662 -13.3040 -13.2716 -13.2614
     1.0800   3.9471   6.8056   7.7276

          k = 0.0833-0.0481 0.1999 (  8809 PWs)   bands (ev):

   -33.1129 -33.0087 -13.8428 -13.4405 -13.4403 -13.4059 -13.2977 -13.2810
     1.4686   3.6372   6.9229   7.8473

          k = 0.0833-0.0481 0.3332 (  8822 PWs)   bands (ev):

   -33.0800 -33.0417 -13.7183 -13.5597 -13.3952 -13.3875 -13.3430 -13.3289
     2.1558   2.9661   7.3618   7.8028

          k = 0.2500 0.4330 0.0666 (  8799 PWs)   bands (ev):

   -33.0699 -33.0214 -13.7132 -13.6500 -13.5285 -13.5245 -13.3927 -13.2917
     3.2935   4.4185   4.7392   6.1403

          k = 0.2500 0.4330 0.1999 (  8784 PWs)   bands (ev):

   -33.0631 -33.0276 -13.8048 -13.7044 -13.5748 -13.3982 -13.3367 -13.2912
     3.5772   4.5868   4.9531   5.7617

          k = 0.2500 0.4330 0.3332 (  8784 PWs)   bands (ev):

   -33.0516 -33.0386 -13.8418 -13.8037 -13.5056 -13.4172 -13.2952 -13.2562
     4.0624   4.5417   5.2382   5.4163

          k = 0.2500 0.6255 0.0666 (  8807 PWs)   bands (ev):

   -33.0567 -33.0317 -13.6848 -13.6532 -13.5767 -13.5007 -13.4267 -13.2986
     3.8178   4.2782   4.4741   6.0858

          k = 0.2500 0.6255 0.1999 (  8800 PWs)   bands (ev):

   -33.0531 -33.0348 -13.7880 -13.7270 -13.6068 -13.3706 -13.3480 -13.3087
     4.0702   4.5236   4.6870   5.7274

          k = 0.2500 0.6255 0.3332 (  8778 PWs)   bands (ev):

   -33.0469 -33.0402 -13.8432 -13.8210 -13.5273 -13.4323 -13.2781 -13.2557
     4.4910   4.7801   4.9447   5.2339

          k = 0.2500-0.3368 0.0666 (  8789 PWs)   bands (ev):

   -33.0848 -33.0115 -13.7611 -13.6122 -13.5370 -13.4830 -13.3577 -13.2798
     2.7460   4.3977   5.1461   6.2412

          k = 0.2500-0.3368 0.1999 (  8785 PWs)   bands (ev):

   -33.0748 -33.0211 -13.8217 -13.6635 -13.5321 -13.4275 -13.3214 -13.2763
     3.0553   4.4628   5.3397   5.8812

          k = 0.2500-0.3368 0.3332 (  8777 PWs)   bands (ev):

   -33.0575 -33.0379 -13.8324 -13.7734 -13.4714 -13.3926 -13.3201 -13.2640
     3.5962   4.1897   5.5797   5.6857

          k = 0.2500-0.1443 0.0666 (  8796 PWs)   bands (ev):

   -33.1084 -32.9990 -13.8349 -13.5482 -13.5072 -13.4180 -13.3060 -13.2650
     1.8954   4.2384   6.0410   6.4798

          k = 0.2500-0.1443 0.1999 (  8799 PWs)   bands (ev):

   -33.0936 -33.0137 -13.8341 -13.5650 -13.4752 -13.4572 -13.2979 -13.2667
     2.2443   4.1015   6.1826   6.2893

          k = 0.2500-0.1443 0.3332 (  8812 PWs)   bands (ev):

   -33.0683 -33.0390 -13.7914 -13.6946 -13.4194 -13.3635 -13.3545 -13.2895
     2.8623   3.5812   6.2906   6.3639

          k = 0.4167 0.7217 0.0666 (  8798 PWs)   bands (ev):

   -33.0623 -33.0271 -13.7147 -13.6284 -13.5632 -13.5211 -13.4133 -13.2846
     3.8998   3.9994   4.5564   6.1045

          k = 0.4167 0.7217 0.1999 (  8787 PWs)   bands (ev):

   -33.0573 -33.0315 -13.8146 -13.7123 -13.5772 -13.3960 -13.3365 -13.2974
     4.1261   4.2882   4.7404   5.7050

          k = 0.4167 0.7217 0.3332 (  8761 PWs)   bands (ev):

   -33.0488 -33.0393 -13.8561 -13.8196 -13.5001 -13.4111 -13.2960 -13.2599
     4.5366   4.6745   4.8960   5.1369

          k = 0.4167-0.2406 0.0666 (  8798 PWs)   bands (ev):

   -33.0767 -33.0167 -13.7517 -13.6091 -13.5440 -13.5201 -13.3824 -13.2625
     3.1829   4.3449   4.7127   6.1804

          k = 0.4167-0.2406 0.1999 (  8788 PWs)   bands (ev):

   -33.0685 -33.0244 -13.8398 -13.6838 -13.5069 -13.4551 -13.3009 -13.2933
     3.4687   4.5342   4.8634   5.7537

          k = 0.4167-0.2406 0.3332 (  8773 PWs)   bands (ev):

   -33.0543 -33.0381 -13.8608 -13.8040 -13.4423 -13.3669 -13.3381 -13.2778
     3.9609   4.4700   5.1105   5.3710

!    total energy              =    -151.53579454 Ry
     Harris-Foulkes estimate   =    -151.53579465 Ry
     estimated scf accuracy    <       0.00000035 Ry

     The total energy is the sum of the following terms:

     one-electron contribution =     -48.47245937 Ry
     hartree contribution      =      30.10103158 Ry
     xc contribution           =     -23.62192882 Ry
     ewald contribution        =    -109.54243792 Ry

     convergence has been achieved in   8 iterations

     Forces acting on atoms (Ry/au):

     atom    1 type  2   force =     0.00000000   -0.00000000    0.00000000
     atom    2 type  2   force =     0.00000000    0.00000000    0.00000000
     atom    3 type  1   force =     0.00000000   -0.00000000   -0.00000000
     atom    4 type  1   force =     0.00000000    0.00000000    0.00000000
     atom    5 type  1   force =    -0.00000000    0.00000000   -0.00000000
     atom    6 type  1   force =     0.00000000    0.00000000   -0.00000000

     Total force =     0.000000     Total SCF correction =     0.000000


     entering subroutine stress ...

          total   stress  (Ry/bohr**3)                   (kbar)     P=   85.94
   0.00036574  -0.00000000   0.00000000         53.80     -0.00      0.00
  -0.00000000   0.00036574  -0.00000000         -0.00     53.80     -0.00
  -0.00000000   0.00000000   0.00102106         -0.00      0.00    150.20


     BFGS Geometry Optimization

     number of scf cycles    =   1
     number of bfgs steps    =   0

     enthalpy new            =    -147.7656104538 Ry

     new trust radius        =       0.5000000000 bohr
     new conv_thr            =       0.0000010000 Ry

     new unit-cell volume =    267.56473 a.u.^3 (    39.64900 Ang^3 )

CELL_PARAMETERS (alat=  7.15200000)
   0.874394413   0.000000000  -0.000000000
  -0.437197207   0.757247775   0.000000000
   0.000000000  -0.000000000   1.104589635

ATOMIC_POSITIONS (crystal)
Ca       0.333333333   0.666666667   0.250000000
Ca       0.666666667   0.333333333   0.750000000
H        0.333333333   0.666666667   0.750000000
H        0.666666667   0.333333333   0.250000000
H       -0.000000000   0.000000000  -0.000000000
H        0.000000000   0.000000000   0.500000000



     Writing output data file CaH2_18GPa-blyp-1400.save
     NEW-OLD atomic charge density approx. for the potential
     NEW k-points:
        k(    1) = (   0.0953041   0.1650715   0.0754428), wk =   0.0370370
        k(    2) = (   0.0953041   0.1650715   0.2263284), wk =   0.0370370
        k(    3) = (   0.0953041   0.1650715   0.3772140), wk =   0.0370370
        k(    4) = (   0.0953041   0.3851668   0.0754428), wk =   0.0740741
        k(    5) = (   0.0953041   0.3851668   0.2263284), wk =   0.0740741
        k(    6) = (   0.0953041   0.3851668   0.3772140), wk =   0.0740741
        k(    7) = (   0.0953041   0.6052620   0.0754428), wk =   0.0740741
        k(    8) = (   0.0953041   0.6052620   0.2263284), wk =   0.0740741
        k(    9) = (   0.0953041   0.6052620   0.3772140), wk =   0.0740741
        k(   10) = (   0.0953041  -0.4952144   0.0754428), wk =   0.0740741
        k(   11) = (   0.0953041  -0.4952144   0.2263284), wk =   0.0740741
        k(   12) = (   0.0953041  -0.4952144   0.3772140), wk =   0.0740741
        k(   13) = (   0.0953041  -0.2751191   0.0754428), wk =   0.0740741
        k(   14) = (   0.0953041  -0.2751191   0.2263284), wk =   0.0740741
        k(   15) = (   0.0953041  -0.2751191   0.3772140), wk =   0.0740741
        k(   16) = (   0.0953041  -0.0550238   0.0754428), wk =   0.0370370
        k(   17) = (   0.0953041  -0.0550238   0.2263284), wk =   0.0370370
        k(   18) = (   0.0953041  -0.0550238   0.3772140), wk =   0.0370370
        k(   19) = (   0.2859122   0.4952144   0.0754428), wk =   0.0370370
        k(   20) = (   0.2859122   0.4952144   0.2263284), wk =   0.0370370
        k(   21) = (   0.2859122   0.4952144   0.3772140), wk =   0.0370370
        k(   22) = (   0.2859122   0.7153097   0.0754428), wk =   0.0740741
        k(   23) = (   0.2859122   0.7153097   0.2263284), wk =   0.0740741
        k(   24) = (   0.2859122   0.7153097   0.3772140), wk =   0.0740741
        k(   25) = (   0.2859122  -0.3851668   0.0754428), wk =   0.0740741
        k(   26) = (   0.2859122  -0.3851668   0.2263284), wk =   0.0740741
        k(   27) = (   0.2859122  -0.3851668   0.3772140), wk =   0.0740741
        k(   28) = (   0.2859122  -0.1650715   0.0754428), wk =   0.0370370
        k(   29) = (   0.2859122  -0.1650715   0.2263284), wk =   0.0370370
        k(   30) = (   0.2859122  -0.1650715   0.3772140), wk =   0.0370370
        k(   31) = (   0.4765203   0.8253573   0.0754428), wk =   0.0370370
        k(   32) = (   0.4765203   0.8253573   0.2263284), wk =   0.0370370
        k(   33) = (   0.4765203   0.8253573   0.3772140), wk =   0.0370370
        k(   34) = (   0.4765203  -0.2751191   0.0754428), wk =   0.0370370
        k(   35) = (   0.4765203  -0.2751191   0.2263284), wk =   0.0370370
        k(   36) = (   0.4765203  -0.2751191   0.3772140), wk =   0.0370370

     negative rho (up, down):  0.151E-04 0.000E+00
     extrapolated charge   12.47112, renormalised to   24.00000

     total cpu time spent up to now is      413.2 secs

     per-process dynamical memory:    52.7 Mb

     Self-consistent Calculation

     iteration #  1     ecut=   120.00 Ry     beta=0.30
     Davidson diagonalization with overlap
     c_bands:  3 eigenvalues not converged
     c_bands:  3 eigenvalues not converged
     c_bands:  4 eigenvalues not converged
     c_bands:  1 eigenvalues not converged
     c_bands:  3 eigenvalues not converged
     c_bands:  3 eigenvalues not converged
     c_bands:  3 eigenvalues not converged
     c_bands:  2 eigenvalues not converged
     c_bands:  4 eigenvalues not converged
     c_bands:  2 eigenvalues not converged
     c_bands:  3 eigenvalues not converged
     c_bands:  4 eigenvalues not converged
     c_bands:  3 eigenvalues not converged
     c_bands:  3 eigenvalues not converged
     c_bands:  3 eigenvalues not converged
     c_bands:  2 eigenvalues not converged
     c_bands:  4 eigenvalues not converged
     c_bands:  4 eigenvalues not converged
     c_bands:  3 eigenvalues not converged
     c_bands:  4 eigenvalues not converged
     c_bands:  4 eigenvalues not converged
     c_bands:  4 eigenvalues not converged
     c_bands:  4 eigenvalues not converged
     c_bands:  4 eigenvalues not converged
     c_bands:  3 eigenvalues not converged
     c_bands:  2 eigenvalues not converged
     c_bands:  4 eigenvalues not converged
     ethr =  1.00E-06,  avg # of iterations = 19.1

     negative rho (up, down):  0.240E-03 0.000E+00

     total cpu time spent up to now is      513.4 secs

     total energy              =    -142.95854873 Ry
     Harris-Foulkes estimate   =    -163.19655975 Ry
     estimated scf accuracy    <      26.15532464 Ry

     iteration #  2     ecut=   120.00 Ry     beta=0.30
     Davidson diagonalization with overlap
     ethr =  1.00E-02,  avg # of iterations =  4.8

     negative rho (up, down):  0.123E-03 0.000E+00

     total cpu time spent up to now is      550.8 secs

     total energy              =    -151.55160187 Ry
     Harris-Foulkes estimate   =    -151.30023947 Ry
     estimated scf accuracy    <       0.33761855 Ry

     iteration #  3     ecut=   120.00 Ry     beta=0.30
     Davidson diagonalization with overlap
     ethr =  1.41E-03,  avg # of iterations =  4.1

     negative rho (up, down):  0.205E-01 0.000E+00

     total cpu time spent up to now is      587.4 secs

     total energy              =      -7.09580075 Ry
     Harris-Foulkes estimate   =    -308.90733579 Ry
     estimated scf accuracy    <      33.94786840 Ry

     iteration #  4     ecut=   120.00 Ry     beta=0.30
     Davidson diagonalization with overlap
     ethr =  1.41E-03,  avg # of iterations = 10.4

     negative rho (up, down):  0.115E+00 0.000E+00

     total cpu time spent up to now is      632.3 secs

     total energy              =    -155.29922930 Ry
     Harris-Foulkes estimate   =    -151.81695043 Ry
     estimated scf accuracy    <       0.29239277 Ry

     iteration #  5     ecut=   120.00 Ry     beta=0.30
     Davidson diagonalization with overlap
     ethr =  1.22E-03,  avg # of iterations =  5.1

     negative rho (up, down):  0.862E-01 0.000E+00

     total cpu time spent up to now is      684.2 secs

     total energy              =    -421.91249081 Ry
     Harris-Foulkes estimate   =    -176.56534975 Ry
     estimated scf accuracy    <      54.74405919 Ry

     iteration #  6     ecut=   120.00 Ry     beta=0.30
     Davidson diagonalization with overlap
     ethr =  1.22E-03,  avg # of iterations =  6.5

     negative rho (up, down):  0.866E-01 0.000E+00

     total cpu time spent up to now is      741.5 secs

     total energy              =     489.50254674 Ry
     Harris-Foulkes estimate   =   -1363.79712195 Ry
     estimated scf accuracy    <     310.71515948 Ry

     iteration #  7     ecut=   120.00 Ry     beta=0.30
     Davidson diagonalization with overlap
     ethr =  1.22E-03,  avg # of iterations = 10.7

     negative rho (up, down):  0.766E-01 0.000E+00

     total cpu time spent up to now is      826.7 secs

     total energy              =    -242.60838013 Ry
     Harris-Foulkes estimate   =    -157.13198701 Ry
     estimated scf accuracy    <       2.63022555 Ry

     iteration #  8     ecut=   120.00 Ry     beta=0.30
     Davidson diagonalization with overlap
     ethr =  1.22E-03,  avg # of iterations = 10.1

     negative rho (up, down):  0.854E-01 0.000E+00

     total cpu time spent up to now is      891.6 secs

     total energy              =     674.36247024 Ry
     Harris-Foulkes estimate   =   -1318.40586441 Ry
     estimated scf accuracy    <     369.72280541 Ry

     iteration #  9     ecut=   120.00 Ry     beta=0.30
     Davidson diagonalization with overlap
     ethr =  1.22E-03,  avg # of iterations =  9.5

     negative rho (up, down):  0.900E-01 0.000E+00

     total cpu time spent up to now is      965.5 secs

     total energy              =    -321.86018215 Ry
     Harris-Foulkes estimate   =    -152.63199364 Ry
     estimated scf accuracy    <       0.10074951 Ry

     iteration # 10     ecut=   120.00 Ry     beta=0.30
     Davidson diagonalization with overlap
     ethr =  4.20E-04,  avg # of iterations =  6.7

     negative rho (up, down):  0.906E-01 0.000E+00

     total cpu time spent up to now is     1022.1 secs

     total energy              =     604.94135312 Ry
     Harris-Foulkes estimate   =  -29508.17024087 Ry
     estimated scf accuracy    <     360.33119889 Ry

     iteration # 11     ecut=   120.00 Ry     beta=0.30
     Davidson diagonalization with overlap
     ethr =  4.20E-04,  avg # of iterations = 11.9

     negative rho (up, down):  0.917E-01 0.000E+00

     total cpu time spent up to now is     1098.4 secs

     total energy              =       7.77693641 Ry
     Harris-Foulkes estimate   =    -352.35130396 Ry
     estimated scf accuracy    <     135.72993457 Ry

     iteration # 12     ecut=   120.00 Ry     beta=0.30
     Davidson diagonalization with overlap
     ethr =  4.20E-04,  avg # of iterations = 10.4

     negative rho (up, down):  0.758E-01 0.000E+00

     total cpu time spent up to now is     1168.5 secs

     total energy              =    -151.85571806 Ry
     Harris-Foulkes estimate   =    -154.62706029 Ry
     estimated scf accuracy    <       0.56829394 Ry

     iteration # 13     ecut=   120.00 Ry     beta=0.30
     Davidson diagonalization with overlap
     ethr =  4.20E-04,  avg # of iterations =  3.3

     negative rho (up, down):  0.737E-01 0.000E+00

     total cpu time spent up to now is     1207.6 secs

     total energy              =    -155.23689676 Ry
     Harris-Foulkes estimate   =    -152.85261821 Ry
     estimated scf accuracy    <       0.15001590 Ry

     iteration # 14     ecut=   120.00 Ry     beta=0.30
     Davidson diagonalization with overlap
     ethr =  4.20E-04,  avg # of iterations =  6.2

     negative rho (up, down):  0.708E-01 0.000E+00

     total cpu time spent up to now is     1269.8 secs

     total energy              =    -935.37515789 Ry
     Harris-Foulkes estimate   =    -195.13400756 Ry
     estimated scf accuracy    <      93.69030842 Ry

     iteration # 15     ecut=   120.00 Ry     beta=0.30
     Davidson diagonalization with overlap
     ethr =  4.20E-04,  avg # of iterations =  4.2

     negative rho (up, down):  0.708E-01 0.000E+00

     total cpu time spent up to now is     1314.7 secs

     total energy              =   -1881.65286592 Ry
     Harris-Foulkes estimate   =   -1497.64790505 Ry
     estimated scf accuracy    <     141.36054935 Ry

     iteration # 16     ecut=   120.00 Ry     beta=0.30
     Davidson diagonalization with overlap
     ethr =  4.20E-04,  avg # of iterations =  3.0

     negative rho (up, down):  0.716E-01 0.000E+00

     total cpu time spent up to now is     1341.4 secs

     total energy              =  -18915.98583389 Ry
     Harris-Foulkes estimate   =   -1884.77795138 Ry
     estimated scf accuracy    <     139.28459670 Ry

     iteration # 17     ecut=   120.00 Ry     beta=0.30
     Davidson diagonalization with overlap
     ethr =  4.20E-04,  avg # of iterations =  3.1

     negative rho (up, down):  0.723E-01 0.000E+00

     total cpu time spent up to now is     1371.9 secs

     total energy              = -183127.55609072 Ry
     Harris-Foulkes estimate   =  -19482.02800967 Ry
     estimated scf accuracy    <     124.27397994 Ry

     iteration # 18     ecut=   120.00 Ry     beta=0.30
     Davidson diagonalization with overlap
     ethr =  4.20E-04,  avg # of iterations =  3.0

     negative rho (up, down):  0.723E-01 0.000E+00

     total cpu time spent up to now is     1402.9 secs

     total energy              =   -1032.08921779 Ry
     Harris-Foulkes estimate   = -183221.40575745 Ry
     estimated scf accuracy    <     123.41795375 Ry

     iteration # 19     ecut=   120.00 Ry     beta=0.30
     Davidson diagonalization with overlap
     ethr =  4.20E-04,  avg # of iterations =  3.0

     negative rho (up, down):  0.743E-01 0.000E+00

     total cpu time spent up to now is     1442.0 secs

     total energy              =     380.83446926 Ry
     Harris-Foulkes estimate   =   -1163.10256303 Ry
     estimated scf accuracy    <     142.20345224 Ry

     iteration # 20     ecut=   120.00 Ry     beta=0.30
     Davidson diagonalization with overlap
     ethr =  4.20E-04,  avg # of iterations = 10.8

     negative rho (up, down):  0.723E-01 0.000E+00

     total cpu time spent up to now is     1514.7 secs

     total energy              =    -160.08115363 Ry
     Harris-Foulkes estimate   =    -151.53199565 Ry
     estimated scf accuracy    <       0.10238790 Ry

     iteration # 21     ecut=   120.00 Ry     beta=0.30
     Davidson diagonalization with overlap
     ethr =  4.20E-04,  avg # of iterations =  9.2

     negative rho (up, down):  0.721E-01 0.000E+00

     total cpu time spent up to now is     1582.4 secs

     total energy              =    -224.47787355 Ry
     Harris-Foulkes estimate   =    -704.31432424 Ry
     estimated scf accuracy    <     295.77589386 Ry

     iteration # 22     ecut=   120.00 Ry     beta=0.30
     Davidson diagonalization with overlap
     ethr =  4.20E-04,  avg # of iterations = 12.2

     negative rho (up, down):  0.765E-01 0.000E+00

     total cpu time spent up to now is     1651.4 secs

     total energy              =    -259.69076105 Ry
     Harris-Foulkes estimate   =    -491.65274091 Ry
     estimated scf accuracy    <     126.79113936 Ry

     iteration # 23     ecut=   120.00 Ry     beta=0.30
     Davidson diagonalization with overlap
     ethr =  4.20E-04,  avg # of iterations =  5.4

     negative rho (up, down):  0.684E-01 0.000E+00

     total cpu time spent up to now is     1702.2 secs

     total energy              =    -251.50334695 Ry
     Harris-Foulkes estimate   =    -293.15664583 Ry
     estimated scf accuracy    <     160.04399049 Ry

     iteration # 24     ecut=   120.00 Ry     beta=0.30
     Davidson diagonalization with overlap
     ethr =  4.20E-04,  avg # of iterations =  6.1

     negative rho (up, down):  0.797E-01 0.000E+00

     total cpu time spent up to now is     1751.2 secs

     total energy              =    -248.00877512 Ry
     Harris-Foulkes estimate   =    -293.76811428 Ry
     estimated scf accuracy    <      84.40230413 Ry

     iteration # 25     ecut=   120.00 Ry     beta=0.30
     Davidson diagonalization with overlap
     ethr =  4.20E-04,  avg # of iterations =  4.0

     negative rho (up, down):  0.767E-01 0.000E+00

     total cpu time spent up to now is     1794.2 secs

     total energy              =     -54.85306008 Ry
     Harris-Foulkes estimate   =    -251.13282794 Ry
     estimated scf accuracy    <      84.81300543 Ry

     iteration # 26     ecut=   120.00 Ry     beta=0.30
     Davidson diagonalization with overlap
     ethr =  4.20E-04,  avg # of iterations =  9.6

     negative rho (up, down):  0.663E-01 0.000E+00

     total cpu time spent up to now is     1861.3 secs

     total energy              =    -152.90853469 Ry
     Harris-Foulkes estimate   =    -153.62969927 Ry
     estimated scf accuracy    <       0.35520358 Ry

     iteration # 27     ecut=   120.00 Ry     beta=0.30
     Davidson diagonalization with overlap
     ethr =  4.20E-04,  avg # of iterations =  3.0

     negative rho (up, down):  0.585E-01 0.000E+00

     total cpu time spent up to now is     1894.5 secs

     total energy              =    -155.05394118 Ry
     Harris-Foulkes estimate   =    -153.11406879 Ry
     estimated scf accuracy    <       0.29032449 Ry

     iteration # 28     ecut=   120.00 Ry     beta=0.30
     Davidson diagonalization with overlap
     ethr =  4.20E-04,  avg # of iterations =  4.8

     negative rho (up, down):  0.615E-01 0.000E+00

     total cpu time spent up to now is     1940.9 secs

     total energy              =    -141.01071349 Ry
     Harris-Foulkes estimate   =    -158.07196477 Ry
     estimated scf accuracy    <       3.90668960 Ry

     iteration # 29     ecut=   120.00 Ry     beta=0.30
     Davidson diagonalization with overlap
     ethr =  4.20E-04,  avg # of iterations =  4.6

     negative rho (up, down):  0.653E-01 0.000E+00

     total cpu time spent up to now is     1988.5 secs

     total energy              =    -159.78362607 Ry
     Harris-Foulkes estimate   =    -152.50051436 Ry
     estimated scf accuracy    <       0.16519282 Ry

     iteration # 30     ecut=   120.00 Ry     beta=0.30
