
     Program PWSCF v.5.0.2 (svn rev. 9392) starts on 15Jun2014 at  1:59:37 

     This program is part of the open-source Quantum ESPRESSO suite
     for quantum simulation of materials; please cite
         "P. Giannozzi et al., J. Phys.:Condens. Matter 21 395502 (2009);
          URL http://www.quantum-espresso.org", 
     in publications or presentations arising from this work. More details at
     http://www.quantum-espresso.org/quote.php

     Serial version

     Current dimensions of program PWSCF are:
     Max number of different atomic species (ntypx) = 10
     Max number of k-points (npk) =  40000
     Max angular momentum in pseudopotentials (lmaxx) =  3
     Waiting for input...
     Reading input from standard input

     G-vector sticks info
     --------------------
     sticks:   dense  smooth     PW     G-vecs:    dense   smooth      PW
     Sum        1675    1675    499                70221    70221   10875



     bravais-lattice index     =            4
     lattice parameter (alat)  =       7.1520  a.u.
     unit-cell volume          =     396.1522 (a.u.)^3
     number of atoms/cell      =            6
     number of atomic types    =            2
     number of electrons       =        24.00
     number of Kohn-Sham states=           12
     kinetic-energy cutoff     =     120.0000  Ry
     charge density cutoff     =     480.0000  Ry
     convergence threshold     =      1.0E-06
     mixing beta               =       0.3000
     number of iterations used =           16  local-TF  mixing
     Exchange-correlation      = BLYP ( 1 3 1 3 0)
     EXX-fraction              =        0.00
     nstep                     =           50


     celldm(1)=   7.152000  celldm(2)=   0.000000  celldm(3)=   1.250400
     celldm(4)=   0.000000  celldm(5)=   0.000000  celldm(6)=   0.000000

     crystal axes: (cart. coord. in units of alat)
               a(1) = (   1.000000   0.000000   0.000000 )  
               a(2) = (  -0.500000   0.866025   0.000000 )  
               a(3) = (   0.000000   0.000000   1.250400 )  

     reciprocal axes: (cart. coord. in units 2 pi/alat)
               b(1) = (  1.000000  0.577350 -0.000000 )  
               b(2) = (  0.000000  1.154701  0.000000 )  
               b(3) = (  0.000000 -0.000000  0.799744 )  


     PseudoPot. # 1 for H  read from file:
     /home/ilia/espresso/pseudo/H.blyp-vbc.UPF
     MD5 check sum: 64d25ad537c4b939b17faee1147b797b
     Pseudo is Norm-conserving, Zval =  1.0
     Generated by new atomic code, or converted to UPF format
     Using radial grid of  243 points,  0 beta functions with: 

     PseudoPot. # 2 for Ca read from file:
     /home/ilia/espresso/pseudo/Ca.blyp-sp-hgh.UPF
     MD5 check sum: 357a6b692114ea82b84239caae8ecfc0
     Pseudo is Norm-conserving, Zval = 10.0
     Generated in analytical, separable form
     Using radial grid of 1169 points,  5 beta functions with: 
                l(1) =   0
                l(2) =   0
                l(3) =   1
                l(4) =   1
                l(5) =   2

     atomic species   valence    mass     pseudopotential
        H              1.00     1.00700     H ( 1.00)
        Ca            10.00    40.07800     Ca( 1.00)

     24 Sym. Ops., with inversion, found (12 have fractional translation)



   Cartesian axes

     site n.     atom                  positions (alat units)
         1           Ca  tau(   1) = (   0.0000000   0.5773503   0.3126000  )
         2           Ca  tau(   2) = (   0.5000000   0.2886751   0.9378000  )
         3           H   tau(   3) = (   0.0000000   0.5773503   0.9378000  )
         4           H   tau(   4) = (   0.5000000   0.2886751   0.3126000  )
         5           H   tau(   5) = (   0.0000000   0.0000000   0.0000000  )
         6           H   tau(   6) = (   0.0000000   0.0000000   0.6252000  )

     number of k points=    36
                       cart. coord. in units 2pi/alat
        k(    1) = (   0.0833333   0.1443376   0.0666453), wk =   0.0370370
        k(    2) = (   0.0833333   0.1443376   0.1999360), wk =   0.0370370
        k(    3) = (   0.0833333   0.1443376   0.3332267), wk =   0.0370370
        k(    4) = (   0.0833333   0.3367877   0.0666453), wk =   0.0740741
        k(    5) = (   0.0833333   0.3367877   0.1999360), wk =   0.0740741
        k(    6) = (   0.0833333   0.3367877   0.3332267), wk =   0.0740741
        k(    7) = (   0.0833333   0.5292377   0.0666453), wk =   0.0740741
        k(    8) = (   0.0833333   0.5292377   0.1999360), wk =   0.0740741
        k(    9) = (   0.0833333   0.5292377   0.3332267), wk =   0.0740741
        k(   10) = (   0.0833333  -0.4330127   0.0666453), wk =   0.0740741
        k(   11) = (   0.0833333  -0.4330127   0.1999360), wk =   0.0740741
        k(   12) = (   0.0833333  -0.4330127   0.3332267), wk =   0.0740741
        k(   13) = (   0.0833333  -0.2405626   0.0666453), wk =   0.0740741
        k(   14) = (   0.0833333  -0.2405626   0.1999360), wk =   0.0740741
        k(   15) = (   0.0833333  -0.2405626   0.3332267), wk =   0.0740741
        k(   16) = (   0.0833333  -0.0481125   0.0666453), wk =   0.0370370
        k(   17) = (   0.0833333  -0.0481125   0.1999360), wk =   0.0370370
        k(   18) = (   0.0833333  -0.0481125   0.3332267), wk =   0.0370370
        k(   19) = (   0.2500000   0.4330127   0.0666453), wk =   0.0370370
        k(   20) = (   0.2500000   0.4330127   0.1999360), wk =   0.0370370
        k(   21) = (   0.2500000   0.4330127   0.3332267), wk =   0.0370370
        k(   22) = (   0.2500000   0.6254628   0.0666453), wk =   0.0740741
        k(   23) = (   0.2500000   0.6254628   0.1999360), wk =   0.0740741
        k(   24) = (   0.2500000   0.6254628   0.3332267), wk =   0.0740741
        k(   25) = (   0.2500000  -0.3367877   0.0666453), wk =   0.0740741
        k(   26) = (   0.2500000  -0.3367877   0.1999360), wk =   0.0740741
        k(   27) = (   0.2500000  -0.3367877   0.3332267), wk =   0.0740741
        k(   28) = (   0.2500000  -0.1443376   0.0666453), wk =   0.0370370
        k(   29) = (   0.2500000  -0.1443376   0.1999360), wk =   0.0370370
        k(   30) = (   0.2500000  -0.1443376   0.3332267), wk =   0.0370370
        k(   31) = (   0.4166667   0.7216878   0.0666453), wk =   0.0370370
        k(   32) = (   0.4166667   0.7216878   0.1999360), wk =   0.0370370
        k(   33) = (   0.4166667   0.7216878   0.3332267), wk =   0.0370370
        k(   34) = (   0.4166667  -0.2405626   0.0666453), wk =   0.0370370
        k(   35) = (   0.4166667  -0.2405626   0.1999360), wk =   0.0370370
        k(   36) = (   0.4166667  -0.2405626   0.3332267), wk =   0.0370370

     Dense  grid:    70221 G-vectors     FFT dimensions: (  50,  50,  64)

     Largest allocated arrays     est. size (Mb)     dimensions
        Kohn-Sham Wavefunctions         1.62 Mb     (   8823,   12)
        NL pseudopotentials             3.50 Mb     (   8823,   26)
        Each V/rho on FFT grid          2.44 Mb     ( 160000)
        Each G-vector array             0.54 Mb     (  70221)
        G-vector shells                 0.54 Mb     (  70221)
     Largest temporary arrays     est. size (Mb)     dimensions
        Auxiliary wavefunctions         6.46 Mb     (   8823,   48)
        Each subspace H/S matrix        0.04 Mb     (  48,  48)
        Each <psi_i|beta_j> matrix      0.00 Mb     (     26,   12)
        Arrays for rho mixing          39.06 Mb     ( 160000,  16)

     Initial potential from superposition of free atoms

     starting charge   23.98928, renormalised to   24.00000
     Starting wfc are   30 randomized atomic wfcs

     total cpu time spent up to now is       62.2 secs

     per-process dynamical memory:    38.9 Mb

     Self-consistent Calculation

     iteration #  1     ecut=   120.00 Ry     beta=0.30
     Davidson diagonalization with overlap
     ethr =  1.00E-02,  avg # of iterations =  2.0

     Threshold (ethr) on eigenvalues was too large:
     Diagonalizing with lowered threshold

     Davidson diagonalization with overlap
     ethr =  9.46E-04,  avg # of iterations =  1.5

     total cpu time spent up to now is       99.3 secs

     total energy              =    -151.57225362 Ry
     Harris-Foulkes estimate   =    -151.59791152 Ry
     estimated scf accuracy    <       0.24273938 Ry

     iteration #  2     ecut=   120.00 Ry     beta=0.30
     Davidson diagonalization with overlap
     ethr =  1.01E-03,  avg # of iterations =  1.0

     total cpu time spent up to now is      116.8 secs

     total energy              =    -151.50927203 Ry
     Harris-Foulkes estimate   =    -151.57351341 Ry
     estimated scf accuracy    <       0.15476846 Ry

     iteration #  3     ecut=   120.00 Ry     beta=0.30
     Davidson diagonalization with overlap
     ethr =  6.45E-04,  avg # of iterations =  2.6

     total cpu time spent up to now is      137.4 secs

     total energy              =    -151.53284486 Ry
     Harris-Foulkes estimate   =    -151.53644127 Ry
     estimated scf accuracy    <       0.01167930 Ry

     iteration #  4     ecut=   120.00 Ry     beta=0.30
     Davidson diagonalization with overlap
     ethr =  4.87E-05,  avg # of iterations =  3.0

     total cpu time spent up to now is      158.3 secs

     total energy              =    -151.53455051 Ry
     Harris-Foulkes estimate   =    -151.53679175 Ry
     estimated scf accuracy    <       0.00612978 Ry

     iteration #  5     ecut=   120.00 Ry     beta=0.30
     Davidson diagonalization with overlap
     ethr =  2.55E-05,  avg # of iterations =  3.6

     total cpu time spent up to now is      180.0 secs

     total energy              =    -151.53572127 Ry
     Harris-Foulkes estimate   =    -151.53577040 Ry
     estimated scf accuracy    <       0.00012997 Ry

     iteration #  6     ecut=   120.00 Ry     beta=0.30
     Davidson diagonalization with overlap
     ethr =  5.42E-07,  avg # of iterations =  4.1

     total cpu time spent up to now is      205.4 secs

     total energy              =    -151.53579169 Ry
     Harris-Foulkes estimate   =    -151.53579071 Ry
     estimated scf accuracy    <       0.00000918 Ry

     iteration #  7     ecut=   120.00 Ry     beta=0.30
     Davidson diagonalization with overlap
     ethr =  3.83E-08,  avg # of iterations =  3.4

     total cpu time spent up to now is      232.5 secs

     total energy              =    -151.53579453 Ry
     Harris-Foulkes estimate   =    -151.53579447 Ry
     estimated scf accuracy    <       0.00000160 Ry

     iteration #  8     ecut=   120.00 Ry     beta=0.30
     Davidson diagonalization with overlap
     ethr =  6.65E-09,  avg # of iterations =  2.1

     total cpu time spent up to now is      251.6 secs

     End of self-consistent calculation

          k = 0.0833 0.1443 0.0666 (  8810 PWs)   bands (ev):

   -33.1257 -32.9918 -13.8893 -13.4885 -13.4828 -13.3405 -13.2703 -13.2692
     1.2957   4.0372   6.7097   7.1126

          k = 0.0833 0.1443 0.1999 (  8821 PWs)   bands (ev):

   -33.1078 -33.0098 -13.8391 -13.4690 -13.4465 -13.4417 -13.2986 -13.2679
     1.6738   3.7687   6.7165   7.2435

          k = 0.0833 0.1443 0.3332 (  8822 PWs)   bands (ev):

   -33.0768 -33.0408 -13.7397 -13.6035 -13.4037 -13.3792 -13.3476 -13.3113
     2.3432   3.1315   7.0039   7.2799

          k = 0.0833 0.3368 0.0666 (  8795 PWs)   bands (ev):

   -33.0984 -33.0039 -13.8034 -13.5745 -13.5268 -13.4480 -13.3285 -13.2686
     2.2578   4.3245   5.5995   6.3661

          k = 0.0833 0.3368 0.1999 (  8792 PWs)   bands (ev):

   -33.0855 -33.0165 -13.8312 -13.6124 -13.4953 -13.4502 -13.3055 -13.2694
     2.5895   4.2747   5.7693   6.0779

          k = 0.0833 0.3368 0.3332 (  8800 PWs)   bands (ev):

   -33.0635 -33.0383 -13.8140 -13.7343 -13.4380 -13.3678 -13.3464 -13.2779
     3.1753   3.8455   5.9541   6.0143

          k = 0.0833 0.5292 0.0666 (  8793 PWs)   bands (ev):

   -33.0698 -33.0215 -13.7376 -13.6132 -13.5419 -13.5402 -13.3974 -13.2689
     3.5564   4.1612   4.5989   6.1385

          k = 0.0833 0.5292 0.1999 (  8782 PWs)   bands (ev):

   -33.0630 -33.0276 -13.8347 -13.6993 -13.5347 -13.4314 -13.3162 -13.2922
     3.8234   4.4132   4.7510   5.7032

          k = 0.0833 0.5292 0.3332 (  8761 PWs)   bands (ev):

   -33.0515 -33.0385 -13.8646 -13.8157 -13.4631 -13.3824 -13.3215 -13.2705
     4.2757   4.6750   4.8755   5.1872

          k = 0.0833-0.4330 0.0666 (  8788 PWs)   bands (ev):

   -33.0820 -33.0132 -13.7585 -13.6116 -13.5379 -13.4997 -13.3685 -13.2687
     2.8981   4.3952   4.9560   6.2187

          k = 0.0833-0.4330 0.1999 (  8788 PWs)   bands (ev):

   -33.0726 -33.0222 -13.8321 -13.6693 -13.5201 -13.4412 -13.3108 -13.2825
     3.1987   4.5012   5.1342   5.8304

          k = 0.0833-0.4330 0.3332 (  8779 PWs)   bands (ev):

   -33.0564 -33.0380 -13.8464 -13.7867 -13.4539 -13.3770 -13.3311 -13.2718
     3.7222   4.2880   5.3846   5.5659

          k = 0.0833-0.2406 0.0666 (  8796 PWs)   bands (ev):

   -33.1138 -32.9966 -13.8516 -13.5250 -13.5074 -13.3927 -13.2925 -13.2692
     1.7033   4.1826   6.3354   6.5469

          k = 0.0833-0.2406 0.1999 (  8800 PWs)   bands (ev):

   -33.0980 -33.0123 -13.8342 -13.5394 -13.4675 -13.4516 -13.3014 -13.2627
     2.0617   4.0012   6.3932   6.4924

          k = 0.0833-0.2406 0.3332 (  8820 PWs)   bands (ev):

   -33.0708 -33.0395 -13.7751 -13.6683 -13.4195 -13.3646 -13.3563 -13.2914
     2.6967   3.4394   6.4976   6.6117

          k = 0.0833-0.0481 0.0666 (  8823 PWs)   bands (ev):

   -33.1321 -32.9896 -13.9097 -13.4706 -13.4662 -13.3040 -13.2716 -13.2614
     1.0800   3.9471   6.8056   7.7276

          k = 0.0833-0.0481 0.1999 (  8809 PWs)   bands (ev):

   -33.1129 -33.0087 -13.8428 -13.4405 -13.4403 -13.4059 -13.2977 -13.2810
     1.4686   3.6372   6.9229   7.8473

          k = 0.0833-0.0481 0.3332 (  8822 PWs)   bands (ev):

   -33.0800 -33.0417 -13.7183 -13.5597 -13.3952 -13.3875 -13.3430 -13.3289
     2.1558   2.9661   7.3618   7.8028

          k = 0.2500 0.4330 0.0666 (  8799 PWs)   bands (ev):

   -33.0699 -33.0214 -13.7132 -13.6500 -13.5285 -13.5245 -13.3927 -13.2917
     3.2935   4.4185   4.7392   6.1403

          k = 0.2500 0.4330 0.1999 (  8784 PWs)   bands (ev):

   -33.0631 -33.0276 -13.8048 -13.7044 -13.5748 -13.3982 -13.3367 -13.2912
     3.5772   4.5868   4.9531   5.7617

          k = 0.2500 0.4330 0.3332 (  8784 PWs)   bands (ev):

   -33.0516 -33.0386 -13.8418 -13.8037 -13.5056 -13.4172 -13.2952 -13.2562
     4.0624   4.5417   5.2382   5.4163

          k = 0.2500 0.6255 0.0666 (  8807 PWs)   bands (ev):

   -33.0567 -33.0317 -13.6848 -13.6532 -13.5767 -13.5007 -13.4267 -13.2986
     3.8178   4.2782   4.4741   6.0858

          k = 0.2500 0.6255 0.1999 (  8800 PWs)   bands (ev):

   -33.0531 -33.0348 -13.7880 -13.7270 -13.6068 -13.3706 -13.3480 -13.3087
     4.0702   4.5236   4.6870   5.7274

          k = 0.2500 0.6255 0.3332 (  8778 PWs)   bands (ev):

   -33.0469 -33.0402 -13.8432 -13.8210 -13.5273 -13.4323 -13.2781 -13.2557
     4.4910   4.7801   4.9447   5.2339

          k = 0.2500-0.3368 0.0666 (  8789 PWs)   bands (ev):

   -33.0848 -33.0115 -13.7611 -13.6122 -13.5370 -13.4830 -13.3577 -13.2798
     2.7460   4.3977   5.1461   6.2412

          k = 0.2500-0.3368 0.1999 (  8785 PWs)   bands (ev):

   -33.0748 -33.0211 -13.8217 -13.6635 -13.5321 -13.4275 -13.3214 -13.2763
     3.0553   4.4628   5.3397   5.8812

          k = 0.2500-0.3368 0.3332 (  8777 PWs)   bands (ev):

   -33.0575 -33.0379 -13.8324 -13.7734 -13.4714 -13.3926 -13.3201 -13.2640
     3.5962   4.1897   5.5797   5.6857

          k = 0.2500-0.1443 0.0666 (  8796 PWs)   bands (ev):

   -33.1084 -32.9990 -13.8349 -13.5482 -13.5072 -13.4180 -13.3060 -13.2650
     1.8954   4.2384   6.0410   6.4798

          k = 0.2500-0.1443 0.1999 (  8799 PWs)   bands (ev):

   -33.0936 -33.0137 -13.8341 -13.5650 -13.4752 -13.4572 -13.2979 -13.2667
     2.2443   4.1015   6.1826   6.2893

          k = 0.2500-0.1443 0.3332 (  8812 PWs)   bands (ev):

   -33.0683 -33.0390 -13.7914 -13.6946 -13.4194 -13.3635 -13.3545 -13.2895
     2.8623   3.5812   6.2906   6.3639

          k = 0.4167 0.7217 0.0666 (  8798 PWs)   bands (ev):

   -33.0623 -33.0271 -13.7147 -13.6284 -13.5632 -13.5211 -13.4133 -13.2846
     3.8998   3.9994   4.5564   6.1045

          k = 0.4167 0.7217 0.1999 (  8787 PWs)   bands (ev):

   -33.0573 -33.0315 -13.8146 -13.7123 -13.5772 -13.3960 -13.3365 -13.2974
     4.1261   4.2882   4.7404   5.7050

          k = 0.4167 0.7217 0.3332 (  8761 PWs)   bands (ev):

   -33.0488 -33.0393 -13.8561 -13.8196 -13.5001 -13.4111 -13.2960 -13.2599
     4.5366   4.6745   4.8960   5.1369

          k = 0.4167-0.2406 0.0666 (  8798 PWs)   bands (ev):

   -33.0767 -33.0167 -13.7517 -13.6091 -13.5440 -13.5201 -13.3824 -13.2625
     3.1829   4.3449   4.7127   6.1804

          k = 0.4167-0.2406 0.1999 (  8788 PWs)   bands (ev):

   -33.0685 -33.0244 -13.8398 -13.6838 -13.5069 -13.4551 -13.3009 -13.2933
     3.4687   4.5342   4.8634   5.7537

          k = 0.4167-0.2406 0.3332 (  8773 PWs)   bands (ev):

   -33.0543 -33.0381 -13.8608 -13.8040 -13.4423 -13.3669 -13.3381 -13.2778
     3.9609   4.4700   5.1105   5.3710

!    total energy              =    -151.53579454 Ry
     Harris-Foulkes estimate   =    -151.53579465 Ry
     estimated scf accuracy    <       0.00000035 Ry

     The total energy is the sum of the following terms:

     one-electron contribution =     -48.47245937 Ry
     hartree contribution      =      30.10103158 Ry
     xc contribution           =     -23.62192882 Ry
     ewald contribution        =    -109.54243792 Ry

     convergence has been achieved in   8 iterations

     Forces acting on atoms (Ry/au):

     atom    1 type  2   force =     0.00000000   -0.00000000    0.00000000
     atom    2 type  2   force =     0.00000000    0.00000000    0.00000000
     atom    3 type  1   force =     0.00000000   -0.00000000   -0.00000000
     atom    4 type  1   force =     0.00000000    0.00000000    0.00000000
     atom    5 type  1   force =    -0.00000000    0.00000000   -0.00000000
     atom    6 type  1   force =     0.00000000    0.00000000   -0.00000000

     Total force =     0.000000     Total SCF correction =     0.000000


     entering subroutine stress ...

          total   stress  (Ry/bohr**3)                   (kbar)     P=   85.94
   0.00036574  -0.00000000   0.00000000         53.80     -0.00      0.00
  -0.00000000   0.00036574  -0.00000000         -0.00     53.80     -0.00
  -0.00000000   0.00000000   0.00102106         -0.00      0.00    150.20


     BFGS Geometry Optimization

     number of scf cycles    =   1
     number of bfgs steps    =   0

     enthalpy new            =    -150.4585990866 Ry

     new trust radius        =       0.2342058692 bohr
     new conv_thr            =       0.0000010000 Ry

     new unit-cell volume =    336.01143 a.u.^3 (    49.79176 Ang^3 )

CELL_PARAMETERS (alat=  7.15200000)
   0.941164869   0.000000000  -0.000000000
  -0.470582434   0.815072686   0.000000000
   0.000000000  -0.000000000   1.197317915

ATOMIC_POSITIONS (crystal)
Ca       0.333333333   0.666666667   0.250000000
Ca       0.666666667   0.333333333   0.750000000
H        0.333333333   0.666666667   0.750000000
H        0.666666667   0.333333333   0.250000000
H       -0.000000000   0.000000000  -0.000000000
H        0.000000000   0.000000000   0.500000000



     Writing output data file CaH2_18GPa-blyp-0400.save
     NEW-OLD atomic charge density approx. for the potential
     NEW k-points:
        k(    1) = (   0.0885428   0.1533606   0.0696000), wk =   0.0370370
        k(    2) = (   0.0885428   0.1533606   0.2088000), wk =   0.0370370
        k(    3) = (   0.0885428   0.1533606   0.3480000), wk =   0.0370370
        k(    4) = (   0.0885428   0.3578413   0.0696000), wk =   0.0740741
        k(    5) = (   0.0885428   0.3578413   0.2088000), wk =   0.0740741
        k(    6) = (   0.0885428   0.3578413   0.3480000), wk =   0.0740741
        k(    7) = (   0.0885428   0.5623220   0.0696000), wk =   0.0740741
        k(    8) = (   0.0885428   0.5623220   0.2088000), wk =   0.0740741
        k(    9) = (   0.0885428   0.5623220   0.3480000), wk =   0.0740741
        k(   10) = (   0.0885428  -0.4600817   0.0696000), wk =   0.0740741
        k(   11) = (   0.0885428  -0.4600817   0.2088000), wk =   0.0740741
        k(   12) = (   0.0885428  -0.4600817   0.3480000), wk =   0.0740741
        k(   13) = (   0.0885428  -0.2556009   0.0696000), wk =   0.0740741
        k(   14) = (   0.0885428  -0.2556009   0.2088000), wk =   0.0740741
        k(   15) = (   0.0885428  -0.2556009   0.3480000), wk =   0.0740741
        k(   16) = (   0.0885428  -0.0511202   0.0696000), wk =   0.0370370
        k(   17) = (   0.0885428  -0.0511202   0.2088000), wk =   0.0370370
        k(   18) = (   0.0885428  -0.0511202   0.3480000), wk =   0.0370370
        k(   19) = (   0.2656283   0.4600817   0.0696000), wk =   0.0370370
        k(   20) = (   0.2656283   0.4600817   0.2088000), wk =   0.0370370
        k(   21) = (   0.2656283   0.4600817   0.3480000), wk =   0.0370370
        k(   22) = (   0.2656283   0.6645624   0.0696000), wk =   0.0740741
        k(   23) = (   0.2656283   0.6645624   0.2088000), wk =   0.0740741
        k(   24) = (   0.2656283   0.6645624   0.3480000), wk =   0.0740741
        k(   25) = (   0.2656283  -0.3578413   0.0696000), wk =   0.0740741
        k(   26) = (   0.2656283  -0.3578413   0.2088000), wk =   0.0740741
        k(   27) = (   0.2656283  -0.3578413   0.3480000), wk =   0.0740741
        k(   28) = (   0.2656283  -0.1533606   0.0696000), wk =   0.0370370
        k(   29) = (   0.2656283  -0.1533606   0.2088000), wk =   0.0370370
        k(   30) = (   0.2656283  -0.1533606   0.3480000), wk =   0.0370370
        k(   31) = (   0.4427138   0.7668028   0.0696000), wk =   0.0370370
        k(   32) = (   0.4427138   0.7668028   0.2088000), wk =   0.0370370
        k(   33) = (   0.4427138   0.7668028   0.3480000), wk =   0.0370370
        k(   34) = (   0.4427138  -0.2556009   0.0696000), wk =   0.0370370
        k(   35) = (   0.4427138  -0.2556009   0.2088000), wk =   0.0370370
        k(   36) = (   0.4427138  -0.2556009   0.3480000), wk =   0.0370370
     extrapolated charge   19.70629, renormalised to   24.00000

     total cpu time spent up to now is      376.8 secs

     per-process dynamical memory:    52.7 Mb

     Self-consistent Calculation

     iteration #  1     ecut=   120.00 Ry     beta=0.30
     Davidson diagonalization with overlap
     c_bands:  1 eigenvalues not converged
     c_bands:  1 eigenvalues not converged
     c_bands:  1 eigenvalues not converged
     c_bands:  1 eigenvalues not converged
     c_bands:  1 eigenvalues not converged
     c_bands:  2 eigenvalues not converged
     c_bands:  1 eigenvalues not converged
     ethr =  1.00E-06,  avg # of iterations = 16.6

     total cpu time spent up to now is      441.5 secs

     total energy              =    -149.73672098 Ry
     Harris-Foulkes estimate   =    -155.90669655 Ry
     estimated scf accuracy    <       2.59647871 Ry

     iteration #  2     ecut=   120.00 Ry     beta=0.30
     Davidson diagonalization with overlap
     ethr =  1.00E-02,  avg # of iterations =  5.0

     negative rho (up, down):  0.518E-01 0.000E+00

     total cpu time spent up to now is      477.5 secs

     total energy              =   -1756.12185105 Ry
     Harris-Foulkes estimate   =    -266.33064104 Ry
     estimated scf accuracy    <      28.09575152 Ry

     iteration #  3     ecut=   120.00 Ry     beta=0.30
     Davidson diagonalization with overlap
     ethr =  1.00E-02,  avg # of iterations =  6.7

     negative rho (up, down):  0.111E+00 0.000E+00

     total cpu time spent up to now is      521.0 secs

     total energy              =   -4069.88836974 Ry
     Harris-Foulkes estimate   =  -11520.82484639 Ry
     estimated scf accuracy    <     396.71876326 Ry

     iteration #  4     ecut=   120.00 Ry     beta=0.30
     Davidson diagonalization with overlap
     ethr =  1.00E-02,  avg # of iterations =  9.2

     negative rho (up, down):  0.916E-01 0.000E+00

     total cpu time spent up to now is      578.0 secs

     total energy              =    1013.60432972 Ry
     Harris-Foulkes estimate   =  -10360.92907708 Ry
     estimated scf accuracy    <     283.22959735 Ry

     iteration #  5     ecut=   120.00 Ry     beta=0.30
     Davidson diagonalization with overlap
     ethr =  1.00E-02,  avg # of iterations = 12.3

     negative rho (up, down):  0.826E-01 0.000E+00

     total cpu time spent up to now is      647.0 secs

     total energy              =   -3115.16421208 Ry
     Harris-Foulkes estimate   =    -727.11486634 Ry
     estimated scf accuracy    <     135.94158047 Ry

     iteration #  6     ecut=   120.00 Ry     beta=0.30
     Davidson diagonalization with overlap
     ethr =  1.00E-02,  avg # of iterations =  9.8

     negative rho (up, down):  0.761E-01 0.000E+00

     total cpu time spent up to now is      695.4 secs

     total energy              =  -10343.05255099 Ry
     Harris-Foulkes estimate   =   -5158.02333319 Ry
     estimated scf accuracy    <     390.67211688 Ry

     iteration #  7     ecut=   120.00 Ry     beta=0.30
     Davidson diagonalization with overlap
     ethr =  1.00E-02,  avg # of iterations =  7.1

     negative rho (up, down):  0.106E+00 0.000E+00

     total cpu time spent up to now is      737.8 secs

     total energy              =     579.85228949 Ry
     Harris-Foulkes estimate   =  -11589.55584281 Ry
     estimated scf accuracy    <     368.13569849 Ry

     iteration #  8     ecut=   120.00 Ry     beta=0.30
     Davidson diagonalization with overlap
     ethr =  1.00E-02,  avg # of iterations = 10.2

     negative rho (up, down):  0.857E-01 0.000E+00

     total cpu time spent up to now is      803.2 secs

     total energy              =     105.11254363 Ry
     Harris-Foulkes estimate   =    -534.79716323 Ry
     estimated scf accuracy    <     107.71143681 Ry

     iteration #  9     ecut=   120.00 Ry     beta=0.30
     Davidson diagonalization with overlap
     ethr =  1.00E-02,  avg # of iterations =  8.4

     negative rho (up, down):  0.641E-01 0.000E+00

     total cpu time spent up to now is      852.7 secs

     total energy              =    -154.93777642 Ry
     Harris-Foulkes estimate   =    -153.94619413 Ry
     estimated scf accuracy    <       0.26714425 Ry

     iteration # 10     ecut=   120.00 Ry     beta=0.30
     Davidson diagonalization with overlap
     ethr =  1.11E-03,  avg # of iterations =  3.2

     negative rho (up, down):  0.652E-01 0.000E+00

     total cpu time spent up to now is      881.8 secs

     total energy              =    -154.47227221 Ry
     Harris-Foulkes estimate   =    -155.36380886 Ry
     estimated scf accuracy    <       0.54281570 Ry

     iteration # 11     ecut=   120.00 Ry     beta=0.30
     Davidson diagonalization with overlap
     ethr =  1.11E-03,  avg # of iterations =  2.0

     negative rho (up, down):  0.382E-01 0.000E+00

     total cpu time spent up to now is      906.1 secs

     total energy              =    -187.39138377 Ry
     Harris-Foulkes estimate   =    -154.57560767 Ry
     estimated scf accuracy    <       0.34316579 Ry

     iteration # 12     ecut=   120.00 Ry     beta=0.30
     Davidson diagonalization with overlap
     ethr =  1.11E-03,  avg # of iterations =  9.0

     negative rho (up, down):  0.407E-01 0.000E+00

     total cpu time spent up to now is      964.5 secs

     total energy              =  -32402.99733777 Ry
     Harris-Foulkes estimate   =   -2264.67124907 Ry
     estimated scf accuracy    <     423.57705359 Ry

     iteration # 13     ecut=   120.00 Ry     beta=0.30
     Davidson diagonalization with overlap
     ethr =  1.11E-03,  avg # of iterations =  5.1

     negative rho (up, down):  0.396E-01 0.000E+00

     total cpu time spent up to now is     1003.3 secs

     total energy              =   -5051.73037141 Ry
     Harris-Foulkes estimate   =  -40957.80433530 Ry
     estimated scf accuracy    <     395.25759081 Ry

     iteration # 14     ecut=   120.00 Ry     beta=0.30
     Davidson diagonalization with overlap
     ethr =  1.11E-03,  avg # of iterations =  3.0

     negative rho (up, down):  0.389E-01 0.000E+00

     total cpu time spent up to now is     1037.4 secs

     total energy              =  -14278.56974714 Ry
     Harris-Foulkes estimate   =   -5168.35306374 Ry
     estimated scf accuracy    <     422.27730482 Ry

     iteration # 15     ecut=   120.00 Ry     beta=0.30
     Davidson diagonalization with overlap
     ethr =  1.11E-03,  avg # of iterations =  3.0

     negative rho (up, down):  0.394E-01 0.000E+00

     total cpu time spent up to now is     1070.0 secs

     total energy              =  -11591.47449223 Ry
     Harris-Foulkes estimate   =  -14377.75463961 Ry
     estimated scf accuracy    <     405.79252691 Ry

     iteration # 16     ecut=   120.00 Ry     beta=0.30
     Davidson diagonalization with overlap
     ethr =  1.11E-03,  avg # of iterations =  3.0

     negative rho (up, down):  0.398E-01 0.000E+00

     total cpu time spent up to now is     1101.3 secs

     total energy              =  -56989.78533287 Ry
     Harris-Foulkes estimate   =  -11600.46364441 Ry
     estimated scf accuracy    <     408.46055235 Ry

     iteration # 17     ecut=   120.00 Ry     beta=0.30
     Davidson diagonalization with overlap
     ethr =  1.11E-03,  avg # of iterations =  4.0

     negative rho (up, down):  0.455E-01 0.000E+00

     total cpu time spent up to now is     1140.8 secs

     total energy              =    -766.26039670 Ry
     Harris-Foulkes estimate   = -109912.46543826 Ry
     estimated scf accuracy    <     264.86606250 Ry

     iteration # 18     ecut=   120.00 Ry     beta=0.30
     Davidson diagonalization with overlap
     ethr =  1.11E-03,  avg # of iterations =  4.0

     negative rho (up, down):  0.317E-01 0.000E+00

     total cpu time spent up to now is     1182.5 secs

     total energy              =     830.26096853 Ry
     Harris-Foulkes estimate   =   -5235.32373726 Ry
     estimated scf accuracy    <     423.02933203 Ry

     iteration # 19     ecut=   120.00 Ry     beta=0.30
     Davidson diagonalization with overlap
     ethr =  1.11E-03,  avg # of iterations = 12.4

     negative rho (up, down):  0.495E-01 0.000E+00

     total cpu time spent up to now is     1253.4 secs

     total energy              =    -151.81306658 Ry
     Harris-Foulkes estimate   =    -153.70754872 Ry
     estimated scf accuracy    <       0.32634636 Ry

     iteration # 20     ecut=   120.00 Ry     beta=0.30
     Davidson diagonalization with overlap
     ethr =  1.11E-03,  avg # of iterations =  3.1

     negative rho (up, down):  0.604E-01 0.000E+00

     total cpu time spent up to now is     1281.7 secs

     total energy              =    -163.79106035 Ry
     Harris-Foulkes estimate   =    -152.65514137 Ry
     estimated scf accuracy    <       0.11091536 Ry

     iteration # 21     ecut=   120.00 Ry     beta=0.30
     Davidson diagonalization with overlap
     ethr =  4.62E-04,  avg # of iterations =  7.2

     negative rho (up, down):  0.604E-01 0.000E+00

     total cpu time spent up to now is     1333.4 secs

     total energy              =    -651.54245389 Ry
     Harris-Foulkes estimate   =    -467.17763992 Ry
     estimated scf accuracy    <     131.32652493 Ry

     iteration # 22     ecut=   120.00 Ry     beta=0.30
     Davidson diagonalization with overlap
     ethr =  4.62E-04,  avg # of iterations =  9.4

     negative rho (up, down):  0.635E-01 0.000E+00

     total cpu time spent up to now is     1381.5 secs

     total energy              =    -298.86690478 Ry
     Harris-Foulkes estimate   =    -841.36321599 Ry
     estimated scf accuracy    <     288.64728187 Ry

     iteration # 23     ecut=   120.00 Ry     beta=0.30
     Davidson diagonalization with overlap
     ethr =  4.62E-04,  avg # of iterations =  9.9

     negative rho (up, down):  0.649E-01 0.000E+00

     total cpu time spent up to now is     1424.7 secs

     total energy              =    -496.56025367 Ry
     Harris-Foulkes estimate   =    -388.02304616 Ry
     estimated scf accuracy    <     190.28534640 Ry

     iteration # 24     ecut=   120.00 Ry     beta=0.30
     Davidson diagonalization with overlap
     ethr =  4.62E-04,  avg # of iterations =  5.1

     negative rho (up, down):  0.809E-01 0.000E+00

     total cpu time spent up to now is     1463.7 secs

     total energy              =    -174.29551870 Ry
     Harris-Foulkes estimate   =    -539.54187741 Ry
     estimated scf accuracy    <     206.22796277 Ry

     iteration # 25     ecut=   120.00 Ry     beta=0.30
     Davidson diagonalization with overlap
     c_bands:  1 eigenvalues not converged
     ethr =  4.62E-04,  avg # of iterations =  8.5

     negative rho (up, down):  0.855E-01 0.000E+00

     total cpu time spent up to now is     1518.4 secs

     total energy              =   -3580.10280350 Ry
     Harris-Foulkes estimate   =    -432.33294160 Ry
     estimated scf accuracy    <     116.96661965 Ry

     iteration # 26     ecut=   120.00 Ry     beta=0.30
     Davidson diagonalization with overlap
     ethr =  4.62E-04,  avg # of iterations =  7.4

     negative rho (up, down):  0.952E-01 0.000E+00

     total cpu time spent up to now is     1562.8 secs

     total energy              = -207461.87920989 Ry
     Harris-Foulkes estimate   =   -4893.12625863 Ry
     estimated scf accuracy    <      89.15561381 Ry

     iteration # 27     ecut=   120.00 Ry     beta=0.30
     Davidson diagonalization with overlap
     ethr =  4.62E-04,  avg # of iterations =  5.4

     negative rho (up, down):  0.822E-01 0.000E+00

     total cpu time spent up to now is     1599.4 secs

     total energy              =   -1906.65154839 Ry
     Harris-Foulkes estimate   = -208821.41669193 Ry
     estimated scf accuracy    <      90.24932193 Ry

     iteration # 28     ecut=   120.00 Ry     beta=0.30
     Davidson diagonalization with overlap
     ethr =  4.62E-04,  avg # of iterations =  4.3

     negative rho (up, down):  0.998E-01 0.000E+00

     total cpu time spent up to now is     1637.8 secs

     total energy              =     379.03091814 Ry
     Harris-Foulkes estimate   =   -1988.68390434 Ry
     estimated scf accuracy    <      90.67883628 Ry

     iteration # 29     ecut=   120.00 Ry     beta=0.30
     Davidson diagonalization with overlap
     ethr =  4.62E-04,  avg # of iterations =  9.5

     negative rho (up, down):  0.977E-01 0.000E+00

     total cpu time spent up to now is     1708.7 secs

     total energy              =   -1663.60056146 Ry
     Harris-Foulkes estimate   =    -463.64380330 Ry
     estimated scf accuracy    <     256.32041026 Ry

     iteration # 30     ecut=   120.00 Ry     beta=0.30
     Davidson diagonalization with overlap
     ethr =  4.62E-04,  avg # of iterations =  9.9

     negative rho (up, down):  0.381E-01 0.000E+00

     total cpu time spent up to now is     1756.5 secs

     total energy              =     627.72590869 Ry
     Harris-Foulkes estimate   =   -2106.90458010 Ry
     estimated scf accuracy    <     328.00581446 Ry

     iteration # 31     ecut=   120.00 Ry     beta=0.30
     Davidson diagonalization with overlap
     ethr =  4.62E-04,  avg # of iterations = 12.3

     negative rho (up, down):  0.439E-01 0.000E+00

     total cpu time spent up to now is     1832.2 secs

     total energy              =    -122.29688323 Ry
     Harris-Foulkes estimate   =    -175.14488199 Ry
     estimated scf accuracy    <      28.79332457 Ry

     iteration # 32     ecut=   120.00 Ry     beta=0.30
     Davidson diagonalization with overlap
     ethr =  4.62E-04,  avg # of iterations = 10.3

     negative rho (up, down):  0.280E-01 0.000E+00

     total cpu time spent up to now is     1887.8 secs

     total energy              =    -155.34780928 Ry
     Harris-Foulkes estimate   =    -157.24522899 Ry
     estimated scf accuracy    <       1.46159359 Ry

     iteration # 33     ecut=   120.00 Ry     beta=0.30
     Davidson diagonalization with overlap
     ethr =  4.62E-04,  avg # of iterations =  5.1

     negative rho (up, down):  0.168E-01 0.000E+00

     total cpu time spent up to now is     1928.8 secs

     total energy              =    -173.68593958 Ry
     Harris-Foulkes estimate   =    -157.40163921 Ry
     estimated scf accuracy    <       2.48000341 Ry

     iteration # 34     ecut=   120.00 Ry     beta=0.30
     Davidson diagonalization with overlap
     ethr =  4.62E-04,  avg # of iterations =  9.9

     negative rho (up, down):  0.151E-01 0.000E+00

     total cpu time spent up to now is     1986.2 secs

     total energy              =   -2572.14885792 Ry
     Harris-Foulkes estimate   =    -218.36435457 Ry
     estimated scf accuracy    <      90.03660411 Ry

     iteration # 35     ecut=   120.00 Ry     beta=0.30
     Davidson diagonalization with overlap
     ethr =  4.62E-04,  avg # of iterations =  9.6

     negative rho (up, down):  0.172E-01 0.000E+00

     total cpu time spent up to now is     2045.9 secs

     total energy              =     922.02710657 Ry
     Harris-Foulkes estimate   =   -6049.82278789 Ry
     estimated scf accuracy    <     357.26804898 Ry

     iteration # 36     ecut=   120.00 Ry     beta=0.30
     Davidson diagonalization with overlap
     ethr =  4.62E-04,  avg # of iterations = 11.4

     negative rho (up, down):  0.834E-02 0.000E+00

     total cpu time spent up to now is     2128.2 secs

     total energy              =    -441.10894281 Ry
     Harris-Foulkes estimate   =    -153.53721782 Ry
     estimated scf accuracy    <       0.17451549 Ry

     iteration # 37     ecut=   120.00 Ry     beta=0.30
     Davidson diagonalization with overlap
     ethr =  4.62E-04,  avg # of iterations =  6.2

     negative rho (up, down):  0.995E-02 0.000E+00

     total cpu time spent up to now is     2177.1 secs

     total energy              =  -11388.28055424 Ry
     Harris-Foulkes estimate   =  -39859.44163413 Ry
     estimated scf accuracy    <     340.39378293 Ry

     iteration # 38     ecut=   120.00 Ry     beta=0.30
     Davidson diagonalization with overlap
     ethr =  4.62E-04,  avg # of iterations =  4.0

     negative rho (up, down):  0.112E-01 0.000E+00

     total cpu time spent up to now is     2218.4 secs

     total energy              =     116.77582139 Ry
     Harris-Foulkes estimate   =  -17667.59281836 Ry
     estimated scf accuracy    <     338.93400256 Ry

     iteration # 39     ecut=   120.00 Ry     beta=0.30
     Davidson diagonalization with overlap
     ethr =  4.62E-04,  avg # of iterations =  6.0

     negative rho (up, down):  0.117E-01 0.000E+00

     total cpu time spent up to now is     2268.6 secs

     total energy              =      83.03280270 Ry
     Harris-Foulkes estimate   =    -323.95596292 Ry
     estimated scf accuracy    <     243.07900148 Ry

     iteration # 40     ecut=   120.00 Ry     beta=0.30
     Davidson diagonalization with overlap
     ethr =  4.62E-04,  avg # of iterations = 11.6

     negative rho (up, down):  0.175E-01 0.000E+00

     total cpu time spent up to now is     2335.9 secs

     total energy              =    -153.59080962 Ry
     Harris-Foulkes estimate   =    -156.52449717 Ry
     estimated scf accuracy    <       1.02025478 Ry

     iteration # 41     ecut=   120.00 Ry     beta=0.30
     Davidson diagonalization with overlap
     ethr =  4.62E-04,  avg # of iterations =  3.3

     negative rho (up, down):  0.243E-01 0.000E+00

     total cpu time spent up to now is     2369.0 secs

     total energy              =   -1692.10338081 Ry
     Harris-Foulkes estimate   =    -154.43263976 Ry
     estimated scf accuracy    <       0.33718638 Ry

     iteration # 42     ecut=   120.00 Ry     beta=0.30
     Davidson diagonalization with overlap
     ethr =  4.62E-04,  avg # of iterations =  5.5

     negative rho (up, down):  0.239E-01 0.000E+00

     total cpu time spent up to now is     2416.3 secs

     total energy              =   -5175.50149949 Ry
     Harris-Foulkes estimate   = -127818.93468067 Ry
     estimated scf accuracy    <     257.00236206 Ry

     iteration # 43     ecut=   120.00 Ry     beta=0.30
     Davidson diagonalization with overlap
     ethr =  4.62E-04,  avg # of iterations =  5.0

     negative rho (up, down):  0.226E-01 0.000E+00

     total cpu time spent up to now is     2461.3 secs

     total energy              =  100706.39189018 Ry
     Harris-Foulkes estimate   =   -9989.85203527 Ry
     estimated scf accuracy    <     392.89402796 Ry

     iteration # 44     ecut=   120.00 Ry     beta=0.30
     Davidson diagonalization with overlap
     c_bands:  4 eigenvalues not converged
     c_bands:  4 eigenvalues not converged
     c_bands:  5 eigenvalues not converged
     c_bands:  1 eigenvalues not converged
     c_bands:  5 eigenvalues not converged
     c_bands:  4 eigenvalues not converged
     c_bands:  5 eigenvalues not converged
     c_bands:  5 eigenvalues not converged
     c_bands:  5 eigenvalues not converged
     c_bands:  4 eigenvalues not converged
     c_bands:  2 eigenvalues not converged
     c_bands:  5 eigenvalues not converged
     c_bands:  5 eigenvalues not converged
     c_bands:  5 eigenvalues not converged
     c_bands:  2 eigenvalues not converged
     c_bands:  5 eigenvalues not converged
     c_bands:  2 eigenvalues not converged
     ethr =  4.62E-04,  avg # of iterations = 26.2

     negative rho (up, down):  0.244E-01 0.000E+00

     total cpu time spent up to now is     2640.7 secs

     total energy              =    -635.21222366 Ry
     Harris-Foulkes estimate   =    -155.01876405 Ry
     estimated scf accuracy    <       0.17685792 Ry

     iteration # 45     ecut=   120.00 Ry     beta=0.30
     Davidson diagonalization with overlap
     ethr =  4.62E-04,  avg # of iterations =  4.8

     negative rho (up, down):  0.339E-01 0.000E+00

     total cpu time spent up to now is     2685.3 secs

     total energy              =   -2446.37892725 Ry
     Harris-Foulkes estimate   = -100475.02850205 Ry
     estimated scf accuracy    <     257.50207667 Ry

     iteration # 46     ecut=   120.00 Ry     beta=0.30
     Davidson diagonalization with overlap
     ethr =  4.62E-04,  avg # of iterations =  4.0

     negative rho (up, down):  0.337E-01 0.000E+00

     total cpu time spent up to now is     2727.0 secs

     total energy              =   -2833.64454742 Ry
     Harris-Foulkes estimate   =   -3959.64776833 Ry
     estimated scf accuracy    <     375.21881481 Ry

     iteration # 47     ecut=   120.00 Ry     beta=0.30
     Davidson diagonalization with overlap
     ethr =  4.62E-04,  avg # of iterations =  4.0

     negative rho (up, down):  0.325E-01 0.000E+00

     total cpu time spent up to now is     2767.2 secs

     total energy              =     439.52849979 Ry
     Harris-Foulkes estimate   =   -3130.28650570 Ry
     estimated scf accuracy    <     385.07016839 Ry

     iteration # 48     ecut=   120.00 Ry     beta=0.30
     Davidson diagonalization with overlap
     ethr =  4.62E-04,  avg # of iterations =  7.0

     negative rho (up, down):  0.382E-01 0.000E+00

     total cpu time spent up to now is     2829.2 secs

     total energy              =    -463.60344580 Ry
     Harris-Foulkes estimate   =    -271.77642911 Ry
     estimated scf accuracy    <     206.39169215 Ry

     iteration # 49     ecut=   120.00 Ry     beta=0.30
     Davidson diagonalization with overlap
     ethr =  4.62E-04,  avg # of iterations =  4.0

     negative rho (up, down):  0.393E-01 0.000E+00

     total cpu time spent up to now is     2870.7 secs

     total energy              =   -2869.16309645 Ry
     Harris-Foulkes estimate   =    -628.96411590 Ry
     estimated scf accuracy    <     348.70732824 Ry

     iteration # 50     ecut=   120.00 Ry     beta=0.30
     Davidson diagonalization with overlap
     ethr =  4.62E-04,  avg # of iterations =  4.0

     negative rho (up, down):  0.273E-01 0.000E+00

     total cpu time spent up to now is     2909.1 secs

     total energy              =     765.04039429 Ry
     Harris-Foulkes estimate   =   -4117.58136396 Ry
     estimated scf accuracy    <     309.03948929 Ry

     iteration # 51     ecut=   120.00 Ry     beta=0.30
     Davidson diagonalization with overlap
     ethr =  4.62E-04,  avg # of iterations = 14.0

     negative rho (up, down):  0.214E-01 0.000E+00

     total cpu time spent up to now is     2990.7 secs

     total energy              =    -158.01204184 Ry
     Harris-Foulkes estimate   =    -159.55292443 Ry
     estimated scf accuracy    <       3.02180274 Ry

     iteration # 52     ecut=   120.00 Ry     beta=0.30
     Davidson diagonalization with overlap
     ethr =  4.62E-04,  avg # of iterations =  3.0

     negative rho (up, down):  0.336E-01 0.000E+00

     total cpu time spent up to now is     3021.7 secs

     total energy              =    -169.53618543 Ry
     Harris-Foulkes estimate   =    -158.69601406 Ry
     estimated scf accuracy    <       2.23605738 Ry

     iteration # 53     ecut=   120.00 Ry     beta=0.30
     Davidson diagonalization with overlap
     ethr =  4.62E-04,  avg # of iterations =  7.1

     negative rho (up, down):  0.176E-01 0.000E+00

     total cpu time spent up to now is     3074.6 secs

     total energy              =    -203.33838347 Ry
     Harris-Foulkes estimate   =    -244.94011771 Ry
     estimated scf accuracy    <     119.71950647 Ry

     iteration # 54     ecut=   120.00 Ry     beta=0.30
     Davidson diagonalization with overlap
     ethr =  4.62E-04,  avg # of iterations = 11.5

     negative rho (up, down):  0.965E-02 0.000E+00

     total cpu time spent up to now is     3139.1 secs

     total energy              =   -5467.90018855 Ry
     Harris-Foulkes estimate   =    -905.36171937 Ry
     estimated scf accuracy    <     342.11614183 Ry

     iteration # 55     ecut=   120.00 Ry     beta=0.30
     Davidson diagonalization with overlap
     ethr =  4.62E-04,  avg # of iterations =  4.8

     negative rho (up, down):  0.104E-01 0.000E+00

     total cpu time spent up to now is     3180.2 secs

     total energy              =      47.19313671 Ry
     Harris-Foulkes estimate   =   -8217.63031026 Ry
     estimated scf accuracy    <     359.15764983 Ry

     iteration # 56     ecut=   120.00 Ry     beta=0.30
     Davidson diagonalization with overlap
     ethr =  4.62E-04,  avg # of iterations =  6.0

     negative rho (up, down):  0.128E-01 0.000E+00

     total cpu time spent up to now is     3233.3 secs

     total energy              =     -75.43250027 Ry
     Harris-Foulkes estimate   =   -1130.60783071 Ry
     estimated scf accuracy    <     341.79039142 Ry

     iteration # 57     ecut=   120.00 Ry     beta=0.30
     Davidson diagonalization with overlap
     ethr =  4.62E-04,  avg # of iterations = 13.6

     negative rho (up, down):  0.217E-01 0.000E+00

     total cpu time spent up to now is     3298.4 secs

     total energy              =  -52014.45039945 Ry
     Harris-Foulkes estimate   =    -492.71999178 Ry
     estimated scf accuracy    <     183.97327768 Ry

     iteration # 58     ecut=   120.00 Ry     beta=0.30
     Davidson diagonalization with overlap
     ethr =  4.62E-04,  avg # of iterations =  6.1

     negative rho (up, down):  0.453E-01 0.000E+00

     total cpu time spent up to now is     3345.6 secs

     total energy              =     977.52455206 Ry
     Harris-Foulkes estimate   =  -96552.77642247 Ry
     estimated scf accuracy    <     341.95638780 Ry

     iteration # 59     ecut=   120.00 Ry     beta=0.30
     Davidson diagonalization with overlap
     ethr =  4.62E-04,  avg # of iterations = 13.2

     negative rho (up, down):  0.966E-01 0.000E+00

     total cpu time spent up to now is     3423.8 secs

     total energy              =    -233.96355628 Ry
     Harris-Foulkes estimate   =    -156.68410696 Ry
     estimated scf accuracy    <       1.55772977 Ry

     iteration # 60     ecut=   120.00 Ry     beta=0.30
     Davidson diagonalization with overlap
     ethr =  4.62E-04,  avg # of iterations =  7.4

     negative rho (up, down):  0.125E+00 0.000E+00

     total cpu time spent up to now is     3482.6 secs

     total energy              =     327.33914342 Ry
     Harris-Foulkes estimate   =   -4276.11450722 Ry
     estimated scf accuracy    <     369.66050534 Ry

     iteration # 61     ecut=   120.00 Ry     beta=0.30
     Davidson diagonalization with overlap
     ethr =  4.62E-04,  avg # of iterations =  8.7

     negative rho (up, down):  0.841E-01 0.000E+00

     total cpu time spent up to now is     3554.4 secs

     total energy              =     223.11994242 Ry
     Harris-Foulkes estimate   =   -3530.60578725 Ry
     estimated scf accuracy    <     276.60395772 Ry

     iteration # 62     ecut=   120.00 Ry     beta=0.30
     Davidson diagonalization with overlap
     c_bands:  1 eigenvalues not converged
     c_bands:  1 eigenvalues not converged
     c_bands:  1 eigenvalues not converged
     ethr =  4.62E-04,  avg # of iterations = 17.9

     negative rho (up, down):  0.516E-01 0.000E+00

     total cpu time spent up to now is     3625.7 secs

     total energy              =    -579.56699059 Ry
     Harris-Foulkes estimate   =    -626.14055854 Ry
     estimated scf accuracy    <     244.04871872 Ry

     iteration # 63     ecut=   120.00 Ry     beta=0.30
     Davidson diagonalization with overlap
     ethr =  4.62E-04,  avg # of iterations = 10.3

     negative rho (up, down):  0.384E-01 0.000E+00

     total cpu time spent up to now is     3678.9 secs

     total energy              =     159.62306270 Ry
     Harris-Foulkes estimate   =    -641.22128347 Ry
     estimated scf accuracy    <     137.58180615 Ry

     iteration # 64     ecut=   120.00 Ry     beta=0.30
     Davidson diagonalization with overlap
     ethr =  4.62E-04,  avg # of iterations =  8.4

     negative rho (up, down):  0.290E-01 0.000E+00

     total cpu time spent up to now is     3743.5 secs

     total energy              =  -15322.34126905 Ry
     Harris-Foulkes estimate   =    -205.75700212 Ry
     estimated scf accuracy    <      61.42046579 Ry

     iteration # 65     ecut=   120.00 Ry     beta=0.30
     Davidson diagonalization with overlap
     ethr =  4.62E-04,  avg # of iterations =  6.3

     negative rho (up, down):  0.355E-01 0.000E+00

     total cpu time spent up to now is     3790.9 secs

     total energy              =   -4384.26175923 Ry
     Harris-Foulkes estimate   =  -50472.29498277 Ry
     estimated scf accuracy    <     251.07302635 Ry

     iteration # 66     ecut=   120.00 Ry     beta=0.30
     Davidson diagonalization with overlap
     ethr =  4.62E-04,  avg # of iterations =  5.0

     negative rho (up, down):  0.255E-01 0.000E+00

     total cpu time spent up to now is     3835.7 secs

     total energy              =  -83606.82387698 Ry
     Harris-Foulkes estimate   =   -9015.99870495 Ry
     estimated scf accuracy    <     316.24952873 Ry

     iteration # 67     ecut=   120.00 Ry     beta=0.30
     Davidson diagonalization with overlap
     ethr =  4.62E-04,  avg # of iterations =  6.1

     negative rho (up, down):  0.334E-01 0.000E+00

     total cpu time spent up to now is     3881.2 secs

     total energy              =  -16552.74155375 Ry
     Harris-Foulkes estimate   = -102972.52329783 Ry
     estimated scf accuracy    <     243.68533481 Ry

     iteration # 68     ecut=   120.00 Ry     beta=0.30
     Davidson diagonalization with overlap
     ethr =  4.62E-04,  avg # of iterations =  5.6

     negative rho (up, down):  0.861E-01 0.000E+00

     total cpu time spent up to now is     3925.6 secs

     total energy              =  -25925.33732356 Ry
     Harris-Foulkes estimate   =  -24442.80332285 Ry
     estimated scf accuracy    <     255.05233252 Ry

     iteration # 69     ecut=   120.00 Ry     beta=0.30
     Davidson diagonalization with overlap
     ethr =  4.62E-04,  avg # of iterations =  4.0

     negative rho (up, down):  0.110E+00 0.000E+00

     total cpu time spent up to now is     3966.5 secs

     total energy              =    -369.89332143 Ry
     Harris-Foulkes estimate   = -128431.88824636 Ry
     estimated scf accuracy    <     391.77467661 Ry

     iteration # 70     ecut=   120.00 Ry     beta=0.30
     Davidson diagonalization with overlap
     ethr =  4.62E-04,  avg # of iterations =  6.0

     negative rho (up, down):  0.103E+00 0.000E+00

     total cpu time spent up to now is     4019.5 secs

     total energy              =     -92.97140338 Ry
     Harris-Foulkes estimate   =   -1658.75485447 Ry
     estimated scf accuracy    <     394.74253679 Ry

     iteration # 71     ecut=   120.00 Ry     beta=0.30
     Davidson diagonalization with overlap
     ethr =  4.62E-04,  avg # of iterations = 12.2

     negative rho (up, down):  0.699E-01 0.000E+00

     total cpu time spent up to now is     4085.3 secs

     total energy              =    -237.87799953 Ry
     Harris-Foulkes estimate   =    -415.80919949 Ry
     estimated scf accuracy    <     248.93429145 Ry

     iteration # 72     ecut=   120.00 Ry     beta=0.30
     Davidson diagonalization with overlap
     c_bands:  1 eigenvalues not converged
     c_bands:  2 eigenvalues not converged
     c_bands:  2 eigenvalues not converged
     ethr =  4.62E-04,  avg # of iterations = 10.6

     negative rho (up, down):  0.444E-01 0.000E+00

     total cpu time spent up to now is     4140.5 secs

     total energy              =  -23499.00308495 Ry
     Harris-Foulkes estimate   =    -372.40941183 Ry
     estimated scf accuracy    <     226.69614377 Ry

     iteration # 73     ecut=   120.00 Ry     beta=0.30
     Davidson diagonalization with overlap
     ethr =  4.62E-04,  avg # of iterations =  5.6

     negative rho (up, down):  0.456E-01 0.000E+00

     total cpu time spent up to now is     4188.0 secs

     total energy              =    1031.88285184 Ry
     Harris-Foulkes estimate   =  -84151.89383281 Ry
     estimated scf accuracy    <     289.37454682 Ry

     iteration # 74     ecut=   120.00 Ry     beta=0.30
     Davidson diagonalization with overlap
     ethr =  4.62E-04,  avg # of iterations = 13.1

     negative rho (up, down):  0.462E-01 0.000E+00

     total cpu time spent up to now is     4265.9 secs

     total energy              =    -162.07343385 Ry
     Harris-Foulkes estimate   =    -155.25759987 Ry
     estimated scf accuracy    <       0.73454851 Ry

     iteration # 75     ecut=   120.00 Ry     beta=0.30
     Davidson diagonalization with overlap
     ethr =  4.62E-04,  avg # of iterations =  9.9

     negative rho (up, down):  0.444E-01 0.000E+00

     total cpu time spent up to now is     4323.7 secs

     total energy              =    -310.46010983 Ry
     Harris-Foulkes estimate   =    -171.37120626 Ry
     estimated scf accuracy    <      19.88500850 Ry

     iteration # 76     ecut=   120.00 Ry     beta=0.30
     Davidson diagonalization with overlap
     ethr =  4.62E-04,  avg # of iterations =  8.4

     negative rho (up, down):  0.392E-01 0.000E+00

     total cpu time spent up to now is     4390.4 secs

     total energy              =   -1254.56727049 Ry
     Harris-Foulkes estimate   =   -1058.08034458 Ry
     estimated scf accuracy    <     346.28693677 Ry

     iteration # 77     ecut=   120.00 Ry     beta=0.30
     Davidson diagonalization with overlap
     ethr =  4.62E-04,  avg # of iterations =  3.0

     negative rho (up, down):  0.392E-01 0.000E+00

     total cpu time spent up to now is     4424.5 secs

     total energy              =    -276.21446795 Ry
     Harris-Foulkes estimate   =   -1265.31750014 Ry
     estimated scf accuracy    <     358.52839082 Ry

     iteration # 78     ecut=   120.00 Ry     beta=0.30
     Davidson diagonalization with overlap
     ethr =  4.62E-04,  avg # of iterations =  4.0

     negative rho (up, down):  0.315E-01 0.000E+00

     total cpu time spent up to now is     4464.5 secs

     total energy              =     189.58405973 Ry
     Harris-Foulkes estimate   =    -373.23622981 Ry
     estimated scf accuracy    <     284.69557598 Ry

     iteration # 79     ecut=   120.00 Ry     beta=0.30
     Davidson diagonalization with overlap
     ethr =  4.62E-04,  avg # of iterations = 12.0

     negative rho (up, down):  0.755E-02 0.000E+00

     total cpu time spent up to now is     4534.9 secs

     total energy              =    -365.41098260 Ry
     Harris-Foulkes estimate   =    -154.98392783 Ry
     estimated scf accuracy    <       0.63356871 Ry

     iteration # 80     ecut=   120.00 Ry     beta=0.30
     Davidson diagonalization with overlap
     ethr =  4.62E-04,  avg # of iterations =  8.1

     negative rho (up, down):  0.867E-02 0.000E+00

     total cpu time spent up to now is     4597.4 secs

     total energy              =     817.19405556 Ry
     Harris-Foulkes estimate   =  -11733.95391736 Ry
     estimated scf accuracy    <     355.90468187 Ry

     iteration # 81     ecut=   120.00 Ry     beta=0.30
     Davidson diagonalization with overlap
     ethr =  4.62E-04,  avg # of iterations =  9.2

     negative rho (up, down):  0.548E-02 0.000E+00

     total cpu time spent up to now is     4664.6 secs

     total energy              = -170956.37452894 Ry
     Harris-Foulkes estimate   =   -1019.52165914 Ry
     estimated scf accuracy    <     210.25773536 Ry

     iteration # 82     ecut=   120.00 Ry     beta=0.30
     Davidson diagonalization with overlap
     ethr =  4.62E-04,  avg # of iterations =  4.0

     negative rho (up, down):  0.576E-02 0.000E+00

     total cpu time spent up to now is     4704.0 secs

     total energy              =   -7090.94224069 Ry
     Harris-Foulkes estimate   = -247354.07817311 Ry
     estimated scf accuracy    <     247.98939129 Ry

     iteration # 83     ecut=   120.00 Ry     beta=0.30
     Davidson diagonalization with overlap
     ethr =  4.62E-04,  avg # of iterations = 10.0

     negative rho (up, down):  0.446E-02 0.000E+00

     total cpu time spent up to now is     4752.9 secs

     total energy              =    -591.48226645 Ry
     Harris-Foulkes estimate   =   -7259.15446890 Ry
     estimated scf accuracy    <     275.88889622 Ry

     iteration # 84     ecut=   120.00 Ry     beta=0.30
     Davidson diagonalization with overlap
     c_bands:  2 eigenvalues not converged
     c_bands:  2 eigenvalues not converged
     ethr =  4.62E-04,  avg # of iterations = 11.7

     negative rho (up, down):  0.704E-02 0.000E+00

     total cpu time spent up to now is     4813.6 secs

     total energy              =   -2370.09201771 Ry
     Harris-Foulkes estimate   =   -2096.27684590 Ry
     estimated scf accuracy    <     348.44165782 Ry

     iteration # 85     ecut=   120.00 Ry     beta=0.30
     Davidson diagonalization with overlap
     ethr =  4.62E-04,  avg # of iterations =  4.1

     negative rho (up, down):  0.110E-01 0.000E+00

     total cpu time spent up to now is     4854.2 secs

     total energy              =    -251.71320786 Ry
     Harris-Foulkes estimate   =   -2706.94404176 Ry
     estimated scf accuracy    <     336.43333927 Ry

     iteration # 86     ecut=   120.00 Ry     beta=0.30
     Davidson diagonalization with overlap
     ethr =  4.62E-04,  avg # of iterations =  6.5

     negative rho (up, down):  0.174E-01 0.000E+00

     total cpu time spent up to now is     4907.8 secs

     total energy              =      12.41027489 Ry
     Harris-Foulkes estimate   =   -1009.92749520 Ry
     estimated scf accuracy    <     170.99579253 Ry

     iteration # 87     ecut=   120.00 Ry     beta=0.30
     Davidson diagonalization with overlap
     ethr =  4.62E-04,  avg # of iterations =  9.7

     negative rho (up, down):  0.209E-01 0.000E+00

     total cpu time spent up to now is     4973.3 secs

     total energy              =    -110.73609463 Ry
     Harris-Foulkes estimate   =    -232.39793127 Ry
     estimated scf accuracy    <     111.05810614 Ry

     iteration # 88     ecut=   120.00 Ry     beta=0.30
     Davidson diagonalization with overlap
     ethr =  4.62E-04,  avg # of iterations = 11.4

     negative rho (up, down):  0.155E-01 0.000E+00

     total cpu time spent up to now is     5033.2 secs

     total energy              =    -173.35194382 Ry
     Harris-Foulkes estimate   =    -162.50790684 Ry
     estimated scf accuracy    <       6.38372176 Ry

     iteration # 89     ecut=   120.00 Ry     beta=0.30
     Davidson diagonalization with overlap
     ethr =  4.62E-04,  avg # of iterations = 10.2

     negative rho (up, down):  0.150E-01 0.000E+00

     total cpu time spent up to now is     5094.8 secs

     total energy              =    -347.85984650 Ry
     Harris-Foulkes estimate   =    -193.31943007 Ry
     estimated scf accuracy    <      67.28835473 Ry

     iteration # 90     ecut=   120.00 Ry     beta=0.30
     Davidson diagonalization with overlap
     ethr =  4.62E-04,  avg # of iterations =  8.7

     negative rho (up, down):  0.178E-01 0.000E+00

     total cpu time spent up to now is     5158.9 secs

     total energy              =     547.20788956 Ry
     Harris-Foulkes estimate   =    -657.58766564 Ry
     estimated scf accuracy    <     325.01400389 Ry

     iteration # 91     ecut=   120.00 Ry     beta=0.30
     Davidson diagonalization with overlap
     ethr =  4.62E-04,  avg # of iterations = 12.6

     negative rho (up, down):  0.268E-01 0.000E+00

     total cpu time spent up to now is     5236.6 secs

     total energy              =    -152.65419563 Ry
     Harris-Foulkes estimate   =    -153.43930788 Ry
     estimated scf accuracy    <       0.17787372 Ry

     iteration # 92     ecut=   120.00 Ry     beta=0.30
     Davidson diagonalization with overlap
     ethr =  4.62E-04,  avg # of iterations =  3.0

     negative rho (up, down):  0.293E-01 0.000E+00

     total cpu time spent up to now is     5265.0 secs

     total energy              =    -206.02627891 Ry
     Harris-Foulkes estimate   =    -152.73827341 Ry
     estimated scf accuracy    <       0.09940144 Ry

     iteration # 93     ecut=   120.00 Ry     beta=0.30
     Davidson diagonalization with overlap
     ethr =  4.14E-04,  avg # of iterations =  7.5

     negative rho (up, down):  0.259E-01 0.000E+00

     total cpu time spent up to now is     5329.0 secs

     total energy              =   -3685.10440531 Ry
     Harris-Foulkes estimate   =   -3642.57514597 Ry
     estimated scf accuracy    <     274.54644954 Ry

     iteration # 94     ecut=   120.00 Ry     beta=0.30
     Davidson diagonalization with overlap
     ethr =  4.14E-04,  avg # of iterations =  2.0

     negative rho (up, down):  0.242E-01 0.000E+00

     total cpu time spent up to now is     5355.8 secs

     total energy              =     962.91680550 Ry
     Harris-Foulkes estimate   =   -3687.49881084 Ry
     estimated scf accuracy    <     276.44280583 Ry

     iteration # 95     ecut=   120.00 Ry     beta=0.30
     Davidson diagonalization with overlap
     ethr =  4.14E-04,  avg # of iterations = 12.2

     negative rho (up, down):  0.197E-01 0.000E+00

     total cpu time spent up to now is     5442.9 secs

     total energy              =    -166.45975352 Ry
     Harris-Foulkes estimate   =    -152.77826028 Ry
     estimated scf accuracy    <       0.10204675 Ry

     iteration # 96     ecut=   120.00 Ry     beta=0.30
     Davidson diagonalization with overlap
     ethr =  4.14E-04,  avg # of iterations =  7.3

     negative rho (up, down):  0.199E-01 0.000E+00

     total cpu time spent up to now is     5500.4 secs

     total energy              =     163.31457891 Ry
     Harris-Foulkes estimate   =    -728.82442924 Ry
     estimated scf accuracy    <     221.24187240 Ry

     iteration # 97     ecut=   120.00 Ry     beta=0.30
     Davidson diagonalization with overlap
     ethr =  4.14E-04,  avg # of iterations = 12.0

     negative rho (up, down):  0.174E-01 0.000E+00

     total cpu time spent up to now is     5570.8 secs

     total energy              =    -153.75238512 Ry
     Harris-Foulkes estimate   =    -157.66827126 Ry
     estimated scf accuracy    <       1.85350757 Ry

     iteration # 98     ecut=   120.00 Ry     beta=0.30
     Davidson diagonalization with overlap
     ethr =  4.14E-04,  avg # of iterations =  5.0

     negative rho (up, down):  0.182E-01 0.000E+00

     total cpu time spent up to now is     5614.4 secs

     total energy              =    -154.69152531 Ry
     Harris-Foulkes estimate   =    -155.44549499 Ry
     estimated scf accuracy    <       0.70069745 Ry

     iteration # 99     ecut=   120.00 Ry     beta=0.30
     Davidson diagonalization with overlap
     ethr =  4.14E-04,  avg # of iterations =  2.9

     negative rho (up, down):  0.190E-01 0.000E+00

     total cpu time spent up to now is     5640.9 secs

     total energy              =    -155.03883004 Ry
     Harris-Foulkes estimate   =    -154.74504444 Ry
     estimated scf accuracy    <       0.48082786 Ry

     iteration #100     ecut=   120.00 Ry     beta=0.30
     Davidson diagonalization with overlap
     ethr =  4.14E-04,  avg # of iterations =  2.0

     negative rho (up, down):  0.228E-01 0.000E+00

     total cpu time spent up to now is     5663.6 secs

     total energy              =    -204.45728738 Ry
     Harris-Foulkes estimate   =    -155.04902393 Ry
     estimated scf accuracy    <       0.56057842 Ry

     End of self-consistent calculation

     convergence NOT achieved after 100 iterations: stopping

     Writing output data file CaH2_18GPa-blyp-0400.save

     init_run     :     61.33s CPU     62.05s WALL (       1 calls)
     electrons    :   5414.07s CPU   5476.32s WALL (       2 calls)
     update_pot   :     52.39s CPU     52.54s WALL (       1 calls)
     forces       :     20.82s CPU     21.04s WALL (       1 calls)
     stress       :     50.73s CPU     51.09s WALL (       1 calls)

     Called by init_run:
     wfcinit      :     21.39s CPU     21.80s WALL (       1 calls)
     potinit      :     17.51s CPU     17.61s WALL (       1 calls)

     Called by electrons:
     c_bands      :   5004.81s CPU   5056.71s WALL (     109 calls)
     sum_band     :    333.42s CPU    340.73s WALL (     109 calls)
     v_of_rho     :     27.53s CPU     28.22s WALL (     110 calls)
     mix_rho      :     47.35s CPU     49.32s WALL (     109 calls)

     Called by c_bands:
     init_us_2    :    135.01s CPU    137.44s WALL (    7956 calls)
     cegterg      :   4864.60s CPU   4899.49s WALL (    3944 calls)

     Called by *egterg:
     h_psi        :   3364.82s CPU   3389.55s WALL (   32618 calls)
     g_psi        :     33.09s CPU     33.40s WALL (   28638 calls)
     cdiaghg      :     24.31s CPU     24.46s WALL (   32510 calls)

     Called by h_psi:
     add_vuspsi   :    316.02s CPU    318.48s WALL (   32618 calls)

     General routines
     calbec       :    328.11s CPU    330.18s WALL (   32690 calls)
     fft          :      7.40s CPU      7.45s WALL (    1220 calls)
     ffts         :     12.73s CPU     12.77s WALL (    2041 calls)
     fftw         :   2155.57s CPU   2170.36s WALL (  604888 calls)
     davcio       :      2.34s CPU     21.16s WALL (   11880 calls)


     PWSCF        :     1h33m CPU        1h34m WALL


   This run was terminated on:   3:34: 1  15Jun2014            

=------------------------------------------------------------------------------=
   JOB DONE.
=------------------------------------------------------------------------------=
