
     Program PWSCF v.5.0.2 (svn rev. 9392) starts on 14Jun2014 at 23:48: 5 

     This program is part of the open-source Quantum ESPRESSO suite
     for quantum simulation of materials; please cite
         "P. Giannozzi et al., J. Phys.:Condens. Matter 21 395502 (2009);
          URL http://www.quantum-espresso.org", 
     in publications or presentations arising from this work. More details at
     http://www.quantum-espresso.org/quote.php

     Serial version

     Current dimensions of program PWSCF are:
     Max number of different atomic species (ntypx) = 10
     Max number of k-points (npk) =  40000
     Max angular momentum in pseudopotentials (lmaxx) =  3
     Waiting for input...
     Reading input from standard input

     G-vector sticks info
     --------------------
     sticks:   dense  smooth     PW     G-vecs:    dense   smooth      PW
     Sum        1675    1675    499                70221    70221   10875



     bravais-lattice index     =            4
     lattice parameter (alat)  =       7.1520  a.u.
     unit-cell volume          =     396.1522 (a.u.)^3
     number of atoms/cell      =            6
     number of atomic types    =            2
     number of electrons       =        24.00
     number of Kohn-Sham states=           12
     kinetic-energy cutoff     =     120.0000  Ry
     charge density cutoff     =     480.0000  Ry
     convergence threshold     =      1.0E-06
     mixing beta               =       0.3000
     number of iterations used =           16  local-TF  mixing
     Exchange-correlation      = BLYP ( 1 3 1 3 0)
     EXX-fraction              =        0.00
     nstep                     =           50


     celldm(1)=   7.152000  celldm(2)=   0.000000  celldm(3)=   1.250400
     celldm(4)=   0.000000  celldm(5)=   0.000000  celldm(6)=   0.000000

     crystal axes: (cart. coord. in units of alat)
               a(1) = (   1.000000   0.000000   0.000000 )  
               a(2) = (  -0.500000   0.866025   0.000000 )  
               a(3) = (   0.000000   0.000000   1.250400 )  

     reciprocal axes: (cart. coord. in units 2 pi/alat)
               b(1) = (  1.000000  0.577350 -0.000000 )  
               b(2) = (  0.000000  1.154701  0.000000 )  
               b(3) = (  0.000000 -0.000000  0.799744 )  


     PseudoPot. # 1 for H  read from file:
     /home/ilia/espresso/pseudo/H.blyp-vbc.UPF
     MD5 check sum: 64d25ad537c4b939b17faee1147b797b
     Pseudo is Norm-conserving, Zval =  1.0
     Generated by new atomic code, or converted to UPF format
     Using radial grid of  243 points,  0 beta functions with: 

     PseudoPot. # 2 for Ca read from file:
     /home/ilia/espresso/pseudo/Ca.blyp-sp-hgh.UPF
     MD5 check sum: 357a6b692114ea82b84239caae8ecfc0
     Pseudo is Norm-conserving, Zval = 10.0
     Generated in analytical, separable form
     Using radial grid of 1169 points,  5 beta functions with: 
                l(1) =   0
                l(2) =   0
                l(3) =   1
                l(4) =   1
                l(5) =   2

     atomic species   valence    mass     pseudopotential
        H              1.00     1.00700     H ( 1.00)
        Ca            10.00    40.07800     Ca( 1.00)

     24 Sym. Ops., with inversion, found (12 have fractional translation)



   Cartesian axes

     site n.     atom                  positions (alat units)
         1           Ca  tau(   1) = (   0.0000000   0.5773503   0.3126000  )
         2           Ca  tau(   2) = (   0.5000000   0.2886751   0.9378000  )
         3           H   tau(   3) = (   0.0000000   0.5773503   0.9378000  )
         4           H   tau(   4) = (   0.5000000   0.2886751   0.3126000  )
         5           H   tau(   5) = (   0.0000000   0.0000000   0.0000000  )
         6           H   tau(   6) = (   0.0000000   0.0000000   0.6252000  )

     number of k points=    36
                       cart. coord. in units 2pi/alat
        k(    1) = (   0.0833333   0.1443376   0.0666453), wk =   0.0370370
        k(    2) = (   0.0833333   0.1443376   0.1999360), wk =   0.0370370
        k(    3) = (   0.0833333   0.1443376   0.3332267), wk =   0.0370370
        k(    4) = (   0.0833333   0.3367877   0.0666453), wk =   0.0740741
        k(    5) = (   0.0833333   0.3367877   0.1999360), wk =   0.0740741
        k(    6) = (   0.0833333   0.3367877   0.3332267), wk =   0.0740741
        k(    7) = (   0.0833333   0.5292377   0.0666453), wk =   0.0740741
        k(    8) = (   0.0833333   0.5292377   0.1999360), wk =   0.0740741
        k(    9) = (   0.0833333   0.5292377   0.3332267), wk =   0.0740741
        k(   10) = (   0.0833333  -0.4330127   0.0666453), wk =   0.0740741
        k(   11) = (   0.0833333  -0.4330127   0.1999360), wk =   0.0740741
        k(   12) = (   0.0833333  -0.4330127   0.3332267), wk =   0.0740741
        k(   13) = (   0.0833333  -0.2405626   0.0666453), wk =   0.0740741
        k(   14) = (   0.0833333  -0.2405626   0.1999360), wk =   0.0740741
        k(   15) = (   0.0833333  -0.2405626   0.3332267), wk =   0.0740741
        k(   16) = (   0.0833333  -0.0481125   0.0666453), wk =   0.0370370
        k(   17) = (   0.0833333  -0.0481125   0.1999360), wk =   0.0370370
        k(   18) = (   0.0833333  -0.0481125   0.3332267), wk =   0.0370370
        k(   19) = (   0.2500000   0.4330127   0.0666453), wk =   0.0370370
        k(   20) = (   0.2500000   0.4330127   0.1999360), wk =   0.0370370
        k(   21) = (   0.2500000   0.4330127   0.3332267), wk =   0.0370370
        k(   22) = (   0.2500000   0.6254628   0.0666453), wk =   0.0740741
        k(   23) = (   0.2500000   0.6254628   0.1999360), wk =   0.0740741
        k(   24) = (   0.2500000   0.6254628   0.3332267), wk =   0.0740741
        k(   25) = (   0.2500000  -0.3367877   0.0666453), wk =   0.0740741
        k(   26) = (   0.2500000  -0.3367877   0.1999360), wk =   0.0740741
        k(   27) = (   0.2500000  -0.3367877   0.3332267), wk =   0.0740741
        k(   28) = (   0.2500000  -0.1443376   0.0666453), wk =   0.0370370
        k(   29) = (   0.2500000  -0.1443376   0.1999360), wk =   0.0370370
        k(   30) = (   0.2500000  -0.1443376   0.3332267), wk =   0.0370370
        k(   31) = (   0.4166667   0.7216878   0.0666453), wk =   0.0370370
        k(   32) = (   0.4166667   0.7216878   0.1999360), wk =   0.0370370
        k(   33) = (   0.4166667   0.7216878   0.3332267), wk =   0.0370370
        k(   34) = (   0.4166667  -0.2405626   0.0666453), wk =   0.0370370
        k(   35) = (   0.4166667  -0.2405626   0.1999360), wk =   0.0370370
        k(   36) = (   0.4166667  -0.2405626   0.3332267), wk =   0.0370370

     Dense  grid:    70221 G-vectors     FFT dimensions: (  50,  50,  64)

     Largest allocated arrays     est. size (Mb)     dimensions
        Kohn-Sham Wavefunctions         1.62 Mb     (   8823,   12)
        NL pseudopotentials             3.50 Mb     (   8823,   26)
        Each V/rho on FFT grid          2.44 Mb     ( 160000)
        Each G-vector array             0.54 Mb     (  70221)
        G-vector shells                 0.54 Mb     (  70221)
     Largest temporary arrays     est. size (Mb)     dimensions
        Auxiliary wavefunctions         6.46 Mb     (   8823,   48)
        Each subspace H/S matrix        0.04 Mb     (  48,  48)
        Each <psi_i|beta_j> matrix      0.00 Mb     (     26,   12)
        Arrays for rho mixing          39.06 Mb     ( 160000,  16)

     Initial potential from superposition of free atoms

     starting charge   23.98928, renormalised to   24.00000
     Starting wfc are   30 randomized atomic wfcs

     total cpu time spent up to now is       60.1 secs

     per-process dynamical memory:    38.9 Mb

     Self-consistent Calculation

     iteration #  1     ecut=   120.00 Ry     beta=0.30
     Davidson diagonalization with overlap
     ethr =  1.00E-02,  avg # of iterations =  2.0

     Threshold (ethr) on eigenvalues was too large:
     Diagonalizing with lowered threshold

     Davidson diagonalization with overlap
     ethr =  9.46E-04,  avg # of iterations =  1.5

     total cpu time spent up to now is       94.2 secs

     total energy              =    -151.57225362 Ry
     Harris-Foulkes estimate   =    -151.59791152 Ry
     estimated scf accuracy    <       0.24273938 Ry

     iteration #  2     ecut=   120.00 Ry     beta=0.30
     Davidson diagonalization with overlap
     ethr =  1.01E-03,  avg # of iterations =  1.0

     total cpu time spent up to now is      110.6 secs

     total energy              =    -151.50927203 Ry
     Harris-Foulkes estimate   =    -151.57351341 Ry
     estimated scf accuracy    <       0.15476846 Ry

     iteration #  3     ecut=   120.00 Ry     beta=0.30
     Davidson diagonalization with overlap
     ethr =  6.45E-04,  avg # of iterations =  2.6

     total cpu time spent up to now is      129.7 secs

     total energy              =    -151.53284486 Ry
     Harris-Foulkes estimate   =    -151.53644127 Ry
     estimated scf accuracy    <       0.01167930 Ry

     iteration #  4     ecut=   120.00 Ry     beta=0.30
     Davidson diagonalization with overlap
     ethr =  4.87E-05,  avg # of iterations =  3.0

     total cpu time spent up to now is      148.9 secs

     total energy              =    -151.53455051 Ry
     Harris-Foulkes estimate   =    -151.53679175 Ry
     estimated scf accuracy    <       0.00612978 Ry

     iteration #  5     ecut=   120.00 Ry     beta=0.30
     Davidson diagonalization with overlap
     ethr =  2.55E-05,  avg # of iterations =  3.6

     total cpu time spent up to now is      169.1 secs

     total energy              =    -151.53572127 Ry
     Harris-Foulkes estimate   =    -151.53577040 Ry
     estimated scf accuracy    <       0.00012997 Ry

     iteration #  6     ecut=   120.00 Ry     beta=0.30
     Davidson diagonalization with overlap
     ethr =  5.42E-07,  avg # of iterations =  4.1

     total cpu time spent up to now is      192.4 secs

     total energy              =    -151.53579169 Ry
     Harris-Foulkes estimate   =    -151.53579071 Ry
     estimated scf accuracy    <       0.00000918 Ry

     iteration #  7     ecut=   120.00 Ry     beta=0.30
     Davidson diagonalization with overlap
     ethr =  3.83E-08,  avg # of iterations =  3.4

     total cpu time spent up to now is      217.3 secs

     total energy              =    -151.53579453 Ry
     Harris-Foulkes estimate   =    -151.53579447 Ry
     estimated scf accuracy    <       0.00000160 Ry

     iteration #  8     ecut=   120.00 Ry     beta=0.30
     Davidson diagonalization with overlap
     ethr =  6.65E-09,  avg # of iterations =  2.1

     total cpu time spent up to now is      234.9 secs

     End of self-consistent calculation

          k = 0.0833 0.1443 0.0666 (  8810 PWs)   bands (ev):

   -33.1257 -32.9918 -13.8893 -13.4885 -13.4828 -13.3405 -13.2703 -13.2692
     1.2957   4.0372   6.7097   7.1126

          k = 0.0833 0.1443 0.1999 (  8821 PWs)   bands (ev):

   -33.1078 -33.0098 -13.8391 -13.4690 -13.4465 -13.4417 -13.2986 -13.2679
     1.6738   3.7687   6.7165   7.2435

          k = 0.0833 0.1443 0.3332 (  8822 PWs)   bands (ev):

   -33.0768 -33.0408 -13.7397 -13.6035 -13.4037 -13.3792 -13.3476 -13.3113
     2.3432   3.1315   7.0039   7.2799

          k = 0.0833 0.3368 0.0666 (  8795 PWs)   bands (ev):

   -33.0984 -33.0039 -13.8034 -13.5745 -13.5268 -13.4480 -13.3285 -13.2686
     2.2578   4.3245   5.5995   6.3661

          k = 0.0833 0.3368 0.1999 (  8792 PWs)   bands (ev):

   -33.0855 -33.0165 -13.8312 -13.6124 -13.4953 -13.4502 -13.3055 -13.2694
     2.5895   4.2747   5.7693   6.0779

          k = 0.0833 0.3368 0.3332 (  8800 PWs)   bands (ev):

   -33.0635 -33.0383 -13.8140 -13.7343 -13.4380 -13.3678 -13.3464 -13.2779
     3.1753   3.8455   5.9541   6.0143

          k = 0.0833 0.5292 0.0666 (  8793 PWs)   bands (ev):

   -33.0698 -33.0215 -13.7376 -13.6132 -13.5419 -13.5402 -13.3974 -13.2689
     3.5564   4.1612   4.5989   6.1385

          k = 0.0833 0.5292 0.1999 (  8782 PWs)   bands (ev):

   -33.0630 -33.0276 -13.8347 -13.6993 -13.5347 -13.4314 -13.3162 -13.2922
     3.8234   4.4132   4.7510   5.7032

          k = 0.0833 0.5292 0.3332 (  8761 PWs)   bands (ev):

   -33.0515 -33.0385 -13.8646 -13.8157 -13.4631 -13.3824 -13.3215 -13.2705
     4.2757   4.6750   4.8755   5.1872

          k = 0.0833-0.4330 0.0666 (  8788 PWs)   bands (ev):

   -33.0820 -33.0132 -13.7585 -13.6116 -13.5379 -13.4997 -13.3685 -13.2687
     2.8981   4.3952   4.9560   6.2187

          k = 0.0833-0.4330 0.1999 (  8788 PWs)   bands (ev):

   -33.0726 -33.0222 -13.8321 -13.6693 -13.5201 -13.4412 -13.3108 -13.2825
     3.1987   4.5012   5.1342   5.8304

          k = 0.0833-0.4330 0.3332 (  8779 PWs)   bands (ev):

   -33.0564 -33.0380 -13.8464 -13.7867 -13.4539 -13.3770 -13.3311 -13.2718
     3.7222   4.2880   5.3846   5.5659

          k = 0.0833-0.2406 0.0666 (  8796 PWs)   bands (ev):

   -33.1138 -32.9966 -13.8516 -13.5250 -13.5074 -13.3927 -13.2925 -13.2692
     1.7033   4.1826   6.3354   6.5469

          k = 0.0833-0.2406 0.1999 (  8800 PWs)   bands (ev):

   -33.0980 -33.0123 -13.8342 -13.5394 -13.4675 -13.4516 -13.3014 -13.2627
     2.0617   4.0012   6.3932   6.4924

          k = 0.0833-0.2406 0.3332 (  8820 PWs)   bands (ev):

   -33.0708 -33.0395 -13.7751 -13.6683 -13.4195 -13.3646 -13.3563 -13.2914
     2.6967   3.4394   6.4976   6.6117

          k = 0.0833-0.0481 0.0666 (  8823 PWs)   bands (ev):

   -33.1321 -32.9896 -13.9097 -13.4706 -13.4662 -13.3040 -13.2716 -13.2614
     1.0800   3.9471   6.8056   7.7276

          k = 0.0833-0.0481 0.1999 (  8809 PWs)   bands (ev):

   -33.1129 -33.0087 -13.8428 -13.4405 -13.4403 -13.4059 -13.2977 -13.2810
     1.4686   3.6372   6.9229   7.8473

          k = 0.0833-0.0481 0.3332 (  8822 PWs)   bands (ev):

   -33.0800 -33.0417 -13.7183 -13.5597 -13.3952 -13.3875 -13.3430 -13.3289
     2.1558   2.9661   7.3618   7.8028

          k = 0.2500 0.4330 0.0666 (  8799 PWs)   bands (ev):

   -33.0699 -33.0214 -13.7132 -13.6500 -13.5285 -13.5245 -13.3927 -13.2917
     3.2935   4.4185   4.7392   6.1403

          k = 0.2500 0.4330 0.1999 (  8784 PWs)   bands (ev):

   -33.0631 -33.0276 -13.8048 -13.7044 -13.5748 -13.3982 -13.3367 -13.2912
     3.5772   4.5868   4.9531   5.7617

          k = 0.2500 0.4330 0.3332 (  8784 PWs)   bands (ev):

   -33.0516 -33.0386 -13.8418 -13.8037 -13.5056 -13.4172 -13.2952 -13.2562
     4.0624   4.5417   5.2382   5.4163

          k = 0.2500 0.6255 0.0666 (  8807 PWs)   bands (ev):

   -33.0567 -33.0317 -13.6848 -13.6532 -13.5767 -13.5007 -13.4267 -13.2986
     3.8178   4.2782   4.4741   6.0858

          k = 0.2500 0.6255 0.1999 (  8800 PWs)   bands (ev):

   -33.0531 -33.0348 -13.7880 -13.7270 -13.6068 -13.3706 -13.3480 -13.3087
     4.0702   4.5236   4.6870   5.7274

          k = 0.2500 0.6255 0.3332 (  8778 PWs)   bands (ev):

   -33.0469 -33.0402 -13.8432 -13.8210 -13.5273 -13.4323 -13.2781 -13.2557
     4.4910   4.7801   4.9447   5.2339

          k = 0.2500-0.3368 0.0666 (  8789 PWs)   bands (ev):

   -33.0848 -33.0115 -13.7611 -13.6122 -13.5370 -13.4830 -13.3577 -13.2798
     2.7460   4.3977   5.1461   6.2412

          k = 0.2500-0.3368 0.1999 (  8785 PWs)   bands (ev):

   -33.0748 -33.0211 -13.8217 -13.6635 -13.5321 -13.4275 -13.3214 -13.2763
     3.0553   4.4628   5.3397   5.8812

          k = 0.2500-0.3368 0.3332 (  8777 PWs)   bands (ev):

   -33.0575 -33.0379 -13.8324 -13.7734 -13.4714 -13.3926 -13.3201 -13.2640
     3.5962   4.1897   5.5797   5.6857

          k = 0.2500-0.1443 0.0666 (  8796 PWs)   bands (ev):

   -33.1084 -32.9990 -13.8349 -13.5482 -13.5072 -13.4180 -13.3060 -13.2650
     1.8954   4.2384   6.0410   6.4798

          k = 0.2500-0.1443 0.1999 (  8799 PWs)   bands (ev):

   -33.0936 -33.0137 -13.8341 -13.5650 -13.4752 -13.4572 -13.2979 -13.2667
     2.2443   4.1015   6.1826   6.2893

          k = 0.2500-0.1443 0.3332 (  8812 PWs)   bands (ev):

   -33.0683 -33.0390 -13.7914 -13.6946 -13.4194 -13.3635 -13.3545 -13.2895
     2.8623   3.5812   6.2906   6.3639

          k = 0.4167 0.7217 0.0666 (  8798 PWs)   bands (ev):

   -33.0623 -33.0271 -13.7147 -13.6284 -13.5632 -13.5211 -13.4133 -13.2846
     3.8998   3.9994   4.5564   6.1045

          k = 0.4167 0.7217 0.1999 (  8787 PWs)   bands (ev):

   -33.0573 -33.0315 -13.8146 -13.7123 -13.5772 -13.3960 -13.3365 -13.2974
     4.1261   4.2882   4.7404   5.7050

          k = 0.4167 0.7217 0.3332 (  8761 PWs)   bands (ev):

   -33.0488 -33.0393 -13.8561 -13.8196 -13.5001 -13.4111 -13.2960 -13.2599
     4.5366   4.6745   4.8960   5.1369

          k = 0.4167-0.2406 0.0666 (  8798 PWs)   bands (ev):

   -33.0767 -33.0167 -13.7517 -13.6091 -13.5440 -13.5201 -13.3824 -13.2625
     3.1829   4.3449   4.7127   6.1804

          k = 0.4167-0.2406 0.1999 (  8788 PWs)   bands (ev):

   -33.0685 -33.0244 -13.8398 -13.6838 -13.5069 -13.4551 -13.3009 -13.2933
     3.4687   4.5342   4.8634   5.7537

          k = 0.4167-0.2406 0.3332 (  8773 PWs)   bands (ev):

   -33.0543 -33.0381 -13.8608 -13.8040 -13.4423 -13.3669 -13.3381 -13.2778
     3.9609   4.4700   5.1105   5.3710

!    total energy              =    -151.53579454 Ry
     Harris-Foulkes estimate   =    -151.53579465 Ry
     estimated scf accuracy    <       0.00000035 Ry

     The total energy is the sum of the following terms:

     one-electron contribution =     -48.47245937 Ry
     hartree contribution      =      30.10103158 Ry
     xc contribution           =     -23.62192882 Ry
     ewald contribution        =    -109.54243792 Ry

     convergence has been achieved in   8 iterations

     Forces acting on atoms (Ry/au):

     atom    1 type  2   force =     0.00000000   -0.00000000    0.00000000
     atom    2 type  2   force =     0.00000000    0.00000000    0.00000000
     atom    3 type  1   force =     0.00000000   -0.00000000   -0.00000000
     atom    4 type  1   force =     0.00000000    0.00000000    0.00000000
     atom    5 type  1   force =    -0.00000000    0.00000000   -0.00000000
     atom    6 type  1   force =     0.00000000    0.00000000   -0.00000000

     Total force =     0.000000     Total SCF correction =     0.000000


     entering subroutine stress ...

          total   stress  (Ry/bohr**3)                   (kbar)     P=   85.94
   0.00036574  -0.00000000   0.00000000         53.80     -0.00      0.00
  -0.00000000   0.00036574  -0.00000000         -0.00     53.80     -0.00
  -0.00000000   0.00000000   0.00102106         -0.00      0.00    150.20


     BFGS Geometry Optimization

     number of scf cycles    =   1
     number of bfgs steps    =   0

     enthalpy new            =    -151.5357945397 Ry

     new trust radius        =       0.1016139050 bohr
     new conv_thr            =       0.0000010000 Ry

     new unit-cell volume =    413.72796 a.u.^3 (    61.30816 Ang^3 )

CELL_PARAMETERS (alat=  7.15200000)
   1.009143500  -0.000000000  -0.000000000
  -0.504571750   0.873943907   0.000000000
   0.000000000  -0.000000000   1.282318396

ATOMIC_POSITIONS (crystal)
Ca       0.333333333   0.666666667   0.250000000
Ca       0.666666667   0.333333333   0.750000000
H        0.333333333   0.666666667   0.750000000
H        0.666666667   0.333333333   0.250000000
H       -0.000000000   0.000000000  -0.000000000
H        0.000000000   0.000000000   0.500000000



     Writing output data file CaH2_18GPa-blyp-0000.save
     NEW-OLD atomic charge density approx. for the potential
     NEW k-points:
        k(    1) = (   0.0825783   0.1430298   0.0649865), wk =   0.0370370
        k(    2) = (   0.0825783   0.1430298   0.1949594), wk =   0.0370370
        k(    3) = (   0.0825783   0.1430298   0.3249323), wk =   0.0370370
        k(    4) = (   0.0825783   0.3337361   0.0649865), wk =   0.0740741
        k(    5) = (   0.0825783   0.3337361   0.1949594), wk =   0.0740741
        k(    6) = (   0.0825783   0.3337361   0.3249323), wk =   0.0740741
        k(    7) = (   0.0825783   0.5244425   0.0649865), wk =   0.0740741
        k(    8) = (   0.0825783   0.5244425   0.1949594), wk =   0.0740741
        k(    9) = (   0.0825783   0.5244425   0.3249323), wk =   0.0740741
        k(   10) = (   0.0825783  -0.4290893   0.0649865), wk =   0.0740741
        k(   11) = (   0.0825783  -0.4290893   0.1949594), wk =   0.0740741
        k(   12) = (   0.0825783  -0.4290893   0.3249323), wk =   0.0740741
        k(   13) = (   0.0825783  -0.2383830   0.0649865), wk =   0.0740741
        k(   14) = (   0.0825783  -0.2383830   0.1949594), wk =   0.0740741
        k(   15) = (   0.0825783  -0.2383830   0.3249323), wk =   0.0740741
        k(   16) = (   0.0825783  -0.0476766   0.0649865), wk =   0.0370370
        k(   17) = (   0.0825783  -0.0476766   0.1949594), wk =   0.0370370
        k(   18) = (   0.0825783  -0.0476766   0.3249323), wk =   0.0370370
        k(   19) = (   0.2477348   0.4290893   0.0649865), wk =   0.0370370
        k(   20) = (   0.2477348   0.4290893   0.1949594), wk =   0.0370370
        k(   21) = (   0.2477348   0.4290893   0.3249323), wk =   0.0370370
        k(   22) = (   0.2477348   0.6197957   0.0649865), wk =   0.0740741
        k(   23) = (   0.2477348   0.6197957   0.1949594), wk =   0.0740741
        k(   24) = (   0.2477348   0.6197957   0.3249323), wk =   0.0740741
        k(   25) = (   0.2477348  -0.3337361   0.0649865), wk =   0.0740741
        k(   26) = (   0.2477348  -0.3337361   0.1949594), wk =   0.0740741
        k(   27) = (   0.2477348  -0.3337361   0.3249323), wk =   0.0740741
        k(   28) = (   0.2477348  -0.1430298   0.0649865), wk =   0.0370370
        k(   29) = (   0.2477348  -0.1430298   0.1949594), wk =   0.0370370
        k(   30) = (   0.2477348  -0.1430298   0.3249323), wk =   0.0370370
        k(   31) = (   0.4128914   0.7151489   0.0649865), wk =   0.0370370
        k(   32) = (   0.4128914   0.7151489   0.1949594), wk =   0.0370370
        k(   33) = (   0.4128914   0.7151489   0.3249323), wk =   0.0370370
        k(   34) = (   0.4128914  -0.2383830   0.0649865), wk =   0.0370370
        k(   35) = (   0.4128914  -0.2383830   0.1949594), wk =   0.0370370
        k(   36) = (   0.4128914  -0.2383830   0.3249323), wk =   0.0370370
     extrapolated charge   25.01910, renormalised to   24.00000

     total cpu time spent up to now is      358.2 secs

     per-process dynamical memory:    52.7 Mb

     Self-consistent Calculation

     iteration #  1     ecut=   120.00 Ry     beta=0.30
     Davidson diagonalization with overlap
     ethr =  1.00E-06,  avg # of iterations =  6.3

     total cpu time spent up to now is      397.4 secs

     total energy              =    -151.49622390 Ry
     Harris-Foulkes estimate   =    -150.20727473 Ry
     estimated scf accuracy    <       0.03717494 Ry

     iteration #  2     ecut=   120.00 Ry     beta=0.30
     Davidson diagonalization with overlap
     ethr =  1.55E-04,  avg # of iterations =  3.9

     total cpu time spent up to now is      423.2 secs

     total energy              =    -151.54335275 Ry
     Harris-Foulkes estimate   =    -151.54121813 Ry
     estimated scf accuracy    <       0.00209529 Ry

     iteration #  3     ecut=   120.00 Ry     beta=0.30
     Davidson diagonalization with overlap
     ethr =  8.73E-06,  avg # of iterations =  1.6

     total cpu time spent up to now is      439.8 secs

     total energy              =    -151.54634148 Ry
     Harris-Foulkes estimate   =    -151.54343767 Ry
     estimated scf accuracy    <       0.00139247 Ry

     iteration #  4     ecut=   120.00 Ry     beta=0.30
     Davidson diagonalization with overlap
     ethr =  5.80E-06,  avg # of iterations =  2.9

     total cpu time spent up to now is      461.5 secs

     total energy              =    -151.54655793 Ry
     Harris-Foulkes estimate   =    -151.54655898 Ry
     estimated scf accuracy    <       0.00003458 Ry

     iteration #  5     ecut=   120.00 Ry     beta=0.30
     Davidson diagonalization with overlap
     ethr =  1.44E-07,  avg # of iterations =  3.6

     total cpu time spent up to now is      481.5 secs

     total energy              =    -151.54654741 Ry
     Harris-Foulkes estimate   =    -151.54657212 Ry
     estimated scf accuracy    <       0.00002164 Ry

     iteration #  6     ecut=   120.00 Ry     beta=0.30
     Davidson diagonalization with overlap
     ethr =  9.02E-08,  avg # of iterations =  2.9

     total cpu time spent up to now is      504.8 secs

     total energy              =    -151.54656164 Ry
     Harris-Foulkes estimate   =    -151.54655302 Ry
     estimated scf accuracy    <       0.00000327 Ry

     iteration #  7     ecut=   120.00 Ry     beta=0.30
     Davidson diagonalization with overlap
     ethr =  1.36E-08,  avg # of iterations =  2.2

     total cpu time spent up to now is      526.3 secs

     End of self-consistent calculation

          k = 0.0826 0.1430 0.0650 (  8810 PWs)   bands (ev):

   -33.6493 -33.5410 -14.3746 -14.0037 -13.9974 -13.8870 -13.8305 -13.8202
     0.9953   3.7216   6.1675   6.7633

          k = 0.0826 0.1430 0.1950 (  8821 PWs)   bands (ev):

   -33.6348 -33.5556 -14.3279 -13.9955 -13.9698 -13.9672 -13.8439 -13.8255
     1.3488   3.3996   6.2502   6.8683

          k = 0.0826 0.1430 0.3249 (  8822 PWs)   bands (ev):

   -33.6098 -33.5807 -14.2378 -14.1173 -13.9314 -13.9151 -13.8846 -13.8598
     1.9812   2.7432   6.5786   6.8708

          k = 0.0826 0.3337 0.0650 (  8795 PWs)   bands (ev):

   -33.6267 -33.5503 -14.2980 -14.0808 -14.0376 -13.9796 -13.8831 -13.8205
     1.9307   4.0005   5.2792   5.8782

          k = 0.0826 0.3337 0.1950 (  8792 PWs)   bands (ev):

   -33.6163 -33.5605 -14.3154 -14.1203 -14.0110 -13.9803 -13.8517 -13.8310
     2.2423   3.8995   5.4231   5.6578

          k = 0.0826 0.3337 0.3249 (  8800 PWs)   bands (ev):

   -33.5986 -33.5782 -14.2963 -14.2258 -13.9620 -13.9046 -13.8935 -13.8378
     2.7966   3.4434   5.5775   5.6340

          k = 0.0826 0.5244 0.0650 (  8793 PWs)   bands (ev):

   -33.6032 -33.5642 -14.2334 -14.1211 -14.0634 -14.0508 -13.9422 -13.8217
     3.2112   3.8115   4.3028   5.6857

          k = 0.0826 0.5244 0.1950 (  8782 PWs)   bands (ev):

   -33.5978 -33.5692 -14.3136 -14.1970 -14.0456 -13.9685 -13.8672 -13.8472
     3.4622   4.0384   4.4218   5.2821

          k = 0.0826 0.5244 0.3249 (  8761 PWs)   bands (ev):

   -33.5885 -33.5780 -14.3378 -14.2956 -13.9843 -13.9169 -13.8769 -13.8340
     3.8881   4.2550   4.5189   4.8057

          k = 0.0826-0.4291 0.0650 (  8788 PWs)   bands (ev):

   -33.6133 -33.5576 -14.2561 -14.1158 -14.0481 -14.0254 -13.9176 -13.8211
     2.5593   4.0617   4.6456   5.7535

          k = 0.0826-0.4291 0.1950 (  8788 PWs)   bands (ev):

   -33.6057 -33.5649 -14.3132 -14.1702 -14.0328 -13.9755 -13.8589 -13.8415
     2.8420   4.1266   4.7970   5.4138

          k = 0.0826-0.4291 0.3249 (  8779 PWs)   bands (ev):

   -33.5926 -33.5777 -14.3227 -14.2706 -13.9762 -13.9122 -13.8837 -13.8343
     3.3372   3.8811   5.0160   5.1865

          k = 0.0826-0.2384 0.0650 (  8796 PWs)   bands (ev):

   -33.6395 -33.5446 -14.3411 -14.0362 -14.0197 -13.9315 -13.8517 -13.8201
     1.3904   3.8632   6.0019   6.0326

          k = 0.0826-0.2384 0.1950 (  8800 PWs)   bands (ev):

   -33.6267 -33.5574 -14.3211 -14.0572 -13.9869 -13.9779 -13.8470 -13.8238
     1.7263   3.6281   5.9534   6.1361

          k = 0.0826-0.2384 0.3249 (  8820 PWs)   bands (ev):

   -33.6048 -33.5794 -14.2652 -14.1705 -13.9455 -13.9069 -13.8925 -13.8465
     2.3268   3.0444   6.0979   6.2263

          k = 0.0826-0.0477 0.0650 (  8823 PWs)   bands (ev):

   -33.6546 -33.5393 -14.3926 -13.9874 -13.9830 -13.8569 -13.8221 -13.8209
     0.7868   3.6338   6.2478   7.3600

          k = 0.0826-0.0477 0.1950 (  8809 PWs)   bands (ev):

   -33.6391 -33.5548 -14.3325 -13.9631 -13.9614 -13.9480 -13.8426 -13.8333
     1.1498   3.2710   6.4367   7.4489

          k = 0.0826-0.0477 0.3249 (  8822 PWs)   bands (ev):

   -33.6125 -33.5815 -14.2218 -14.0827 -13.9238 -13.9191 -13.8804 -13.8713
     1.7984   2.5818   6.9112   7.3650

          k = 0.2477 0.4291 0.0650 (  8799 PWs)   bands (ev):

   -33.6033 -33.5641 -14.2169 -14.1438 -14.0508 -14.0434 -13.9359 -13.8429
     2.9507   4.0847   4.4220   5.6925

          k = 0.2477 0.4291 0.1950 (  8784 PWs)   bands (ev):

   -33.5979 -33.5691 -14.2895 -14.1995 -14.0801 -13.9406 -13.8802 -13.8506
     3.2166   4.2140   4.6128   5.3476

          k = 0.2477 0.4291 0.3249 (  8784 PWs)   bands (ev):

   -33.5886 -33.5781 -14.3185 -14.2849 -14.0214 -13.9479 -13.8535 -13.8209
     3.6732   4.1299   4.8683   5.0384

          k = 0.2477 0.6198 0.0650 (  8807 PWs)   bands (ev):

   -33.5926 -33.5723 -14.1847 -14.1521 -14.0941 -14.0244 -13.9645 -13.8497
     3.4771   3.9377   4.1519   5.6493

          k = 0.2477 0.6198 0.1950 (  8800 PWs)   bands (ev):

   -33.5896 -33.5749 -14.2737 -14.2203 -14.1072 -13.9176 -13.8915 -13.8651
     3.7134   4.1542   4.3363   5.3134

          k = 0.2477 0.6198 0.3249 (  8778 PWs)   bands (ev):

   -33.5847 -33.5792 -14.3192 -14.2999 -14.0404 -13.9611 -13.8396 -13.8208
     4.1044   4.3652   4.5689   4.8539

          k = 0.2477-0.3337 0.0650 (  8789 PWs)   bands (ev):

   -33.6156 -33.5563 -14.2599 -14.1118 -14.0512 -14.0102 -13.9071 -13.8314
     2.4093   4.0691   4.8303   5.7743

          k = 0.2477-0.3337 0.1950 (  8785 PWs)   bands (ev):

   -33.6075 -33.5641 -14.3054 -14.1639 -14.0434 -13.9636 -13.8662 -13.8373
     2.6998   4.0879   5.0005   5.4654

          k = 0.2477-0.3337 0.3249 (  8777 PWs)   bands (ev):

   -33.5935 -33.5777 -14.3111 -14.2591 -13.9915 -13.9261 -13.8734 -13.8268
     3.2112   3.7821   5.2110   5.3070

          k = 0.2477-0.1430 0.0650 (  8796 PWs)   bands (ev):

   -33.6350 -33.5465 -14.3261 -14.0578 -14.0184 -13.9537 -13.8641 -13.8166
     1.5773   3.9176   5.7135   5.9745

          k = 0.2477-0.1430 0.1950 (  8799 PWs)   bands (ev):

   -33.6230 -33.5584 -14.3198 -14.0800 -13.9917 -13.9851 -13.8439 -13.8284
     1.9046   3.7274   5.7994   5.8894

          k = 0.2477-0.1430 0.3249 (  8812 PWs)   bands (ev):

   -33.6026 -33.5789 -14.2782 -14.1925 -13.9451 -13.9078 -13.8910 -13.8466
     2.4893   3.1837   5.8990   5.9832

          k = 0.4129 0.7151 0.0650 (  8798 PWs)   bands (ev):

   -33.5971 -33.5687 -14.2116 -14.1314 -14.0829 -14.0390 -13.9546 -13.8365
     3.5590   3.6504   4.2481   5.6613

          k = 0.4129 0.7151 0.1950 (  8787 PWs)   bands (ev):

   -33.5931 -33.5722 -14.2961 -14.2081 -14.0822 -13.9385 -13.8833 -13.8536
     3.7727   3.9119   4.3994   5.2870

          k = 0.4129 0.7151 0.3249 (  8761 PWs)   bands (ev):

   -33.5862 -33.5786 -14.3303 -14.2988 -14.0169 -13.9426 -13.8548 -13.8245
     4.1528   4.2599   4.5208   4.7583

          k = 0.4129-0.2384 0.0650 (  8798 PWs)   bands (ev):

   -33.6089 -33.5604 -14.2478 -14.1180 -14.0503 -14.0447 -13.9300 -13.8157
     2.8408   3.9979   4.4162   5.7196

          k = 0.4129-0.2384 0.1950 (  8788 PWs)   bands (ev):

   -33.6023 -33.5667 -14.3187 -14.1834 -14.0193 -13.9903 -13.8542 -13.8476
     3.1096   4.1553   4.5359   5.3342

          k = 0.4129-0.2384 0.3249 (  8773 PWs)   bands (ev):

   -33.5908 -33.5777 -14.3347 -14.2856 -13.9654 -13.9026 -13.8915 -13.8408
     3.5754   4.0620   4.7439   4.9899

!    total energy              =    -151.54656501 Ry
     Harris-Foulkes estimate   =    -151.54656208 Ry
     estimated scf accuracy    <       0.00000011 Ry

     The total energy is the sum of the following terms:

     one-electron contribution =     -50.76849812 Ry
     hartree contribution      =      30.78340205 Ry
     xc contribution           =     -23.55597286 Ry
     ewald contribution        =    -108.00549608 Ry

     convergence has been achieved in   7 iterations

     Forces acting on atoms (Ry/au):

     atom    1 type  2   force =    -0.00000000   -0.00000000    0.00000000
     atom    2 type  2   force =    -0.00000000   -0.00000000   -0.00000000
     atom    3 type  1   force =     0.00000000    0.00000000   -0.00000000
     atom    4 type  1   force =    -0.00000000    0.00000000    0.00000000
     atom    5 type  1   force =     0.00000000   -0.00000000    0.00000000
     atom    6 type  1   force =     0.00000000    0.00000000    0.00000000

     Total force =     0.000000     Total SCF correction =     0.000000


     entering subroutine stress ...

          total   stress  (Ry/bohr**3)                   (kbar)     P=   53.17
   0.00018504  -0.00000000   0.00000000         27.22     -0.00      0.00
  -0.00000000   0.00018504  -0.00000000         -0.00     27.22     -0.00
  -0.00000000   0.00000000   0.00071432         -0.00      0.00    105.08


     number of scf cycles    =   2
     number of bfgs steps    =   1

     enthalpy old            =    -151.5357945397 Ry
     enthalpy new            =    -151.5465650068 Ry

     CASE: enthalpy_new < enthalpy_old

     new trust radius        =       0.1518881436 bohr
     new conv_thr            =       0.0000000100 Ry

     new unit-cell volume =    437.86736 a.u.^3 (    64.88525 Ang^3 )

CELL_PARAMETERS (alat=  7.15200000)
   1.019311427  -0.000000000  -0.000000000
  -0.509655713   0.882749590   0.000000000
   0.000000000  -0.000000000   1.330195990

ATOMIC_POSITIONS (crystal)
Ca       0.333333333   0.666666667   0.250000000
Ca       0.666666667   0.333333333   0.750000000
H        0.333333333   0.666666667   0.750000000
H        0.666666667   0.333333333   0.250000000
H       -0.000000000   0.000000000  -0.000000000
H        0.000000000   0.000000000   0.500000000



     Writing output data file CaH2_18GPa-blyp-0000.save
     NEW-OLD atomic charge density approx. for the potential
     NEW k-points:
        k(    1) = (   0.0817545   0.1416030   0.0626474), wk =   0.0370370
        k(    2) = (   0.0817545   0.1416030   0.1879422), wk =   0.0370370
        k(    3) = (   0.0817545   0.1416030   0.3132370), wk =   0.0370370
        k(    4) = (   0.0817545   0.3304070   0.0626474), wk =   0.0740741
        k(    5) = (   0.0817545   0.3304070   0.1879422), wk =   0.0740741
        k(    6) = (   0.0817545   0.3304070   0.3132370), wk =   0.0740741
        k(    7) = (   0.0817545   0.5192110   0.0626474), wk =   0.0740741
        k(    8) = (   0.0817545   0.5192110   0.1879422), wk =   0.0740741
        k(    9) = (   0.0817545   0.5192110   0.3132370), wk =   0.0740741
        k(   10) = (   0.0817545  -0.4248090   0.0626474), wk =   0.0740741
        k(   11) = (   0.0817545  -0.4248090   0.1879422), wk =   0.0740741
        k(   12) = (   0.0817545  -0.4248090   0.3132370), wk =   0.0740741
        k(   13) = (   0.0817545  -0.2360050   0.0626474), wk =   0.0740741
        k(   14) = (   0.0817545  -0.2360050   0.1879422), wk =   0.0740741
        k(   15) = (   0.0817545  -0.2360050   0.3132370), wk =   0.0740741
        k(   16) = (   0.0817545  -0.0472010   0.0626474), wk =   0.0370370
        k(   17) = (   0.0817545  -0.0472010   0.1879422), wk =   0.0370370
        k(   18) = (   0.0817545  -0.0472010   0.3132370), wk =   0.0370370
        k(   19) = (   0.2452636   0.4248090   0.0626474), wk =   0.0370370
        k(   20) = (   0.2452636   0.4248090   0.1879422), wk =   0.0370370
        k(   21) = (   0.2452636   0.4248090   0.3132370), wk =   0.0370370
        k(   22) = (   0.2452636   0.6136130   0.0626474), wk =   0.0740741
        k(   23) = (   0.2452636   0.6136130   0.1879422), wk =   0.0740741
        k(   24) = (   0.2452636   0.6136130   0.3132370), wk =   0.0740741
        k(   25) = (   0.2452636  -0.3304070   0.0626474), wk =   0.0740741
        k(   26) = (   0.2452636  -0.3304070   0.1879422), wk =   0.0740741
        k(   27) = (   0.2452636  -0.3304070   0.3132370), wk =   0.0740741
        k(   28) = (   0.2452636  -0.1416030   0.0626474), wk =   0.0370370
        k(   29) = (   0.2452636  -0.1416030   0.1879422), wk =   0.0370370
        k(   30) = (   0.2452636  -0.1416030   0.3132370), wk =   0.0370370
        k(   31) = (   0.4087727   0.7080151   0.0626474), wk =   0.0370370
        k(   32) = (   0.4087727   0.7080151   0.1879422), wk =   0.0370370
        k(   33) = (   0.4087727   0.7080151   0.3132370), wk =   0.0370370
        k(   34) = (   0.4087727  -0.2360050   0.0626474), wk =   0.0370370
        k(   35) = (   0.4087727  -0.2360050   0.1879422), wk =   0.0370370
        k(   36) = (   0.4087727  -0.2360050   0.3132370), wk =   0.0370370
     extrapolated charge   25.32252, renormalised to   24.00000

     total cpu time spent up to now is      649.7 secs

     per-process dynamical memory:    52.7 Mb

     Self-consistent Calculation

     iteration #  1     ecut=   120.00 Ry     beta=0.30
     Davidson diagonalization with overlap
     ethr =  1.00E-06,  avg # of iterations =  7.1

     total cpu time spent up to now is      692.5 secs

     total energy              =    -151.47450686 Ry
     Harris-Foulkes estimate   =    -149.70948863 Ry
     estimated scf accuracy    <       0.06011770 Ry

     iteration #  2     ecut=   120.00 Ry     beta=0.30
     Davidson diagonalization with overlap
     ethr =  2.50E-04,  avg # of iterations =  3.9

     total cpu time spent up to now is      718.5 secs

     total energy              =    -151.55232441 Ry
     Harris-Foulkes estimate   =    -151.55019671 Ry
     estimated scf accuracy    <       0.00385544 Ry

     iteration #  3     ecut=   120.00 Ry     beta=0.30
     Davidson diagonalization with overlap
     ethr =  1.61E-05,  avg # of iterations =  1.6

     total cpu time spent up to now is      735.4 secs

     total energy              =    -151.55515413 Ry
     Harris-Foulkes estimate   =    -151.55246977 Ry
     estimated scf accuracy    <       0.00258583 Ry

     iteration #  4     ecut=   120.00 Ry     beta=0.30
     Davidson diagonalization with overlap
     ethr =  1.08E-05,  avg # of iterations =  2.8

     total cpu time spent up to now is      757.3 secs

     total energy              =    -151.55558657 Ry
     Harris-Foulkes estimate   =    -151.55556793 Ry
     estimated scf accuracy    <       0.00005170 Ry

     iteration #  5     ecut=   120.00 Ry     beta=0.30
     Davidson diagonalization with overlap
     ethr =  2.15E-07,  avg # of iterations =  3.9

     total cpu time spent up to now is      777.8 secs

     total energy              =    -151.55557013 Ry
     Harris-Foulkes estimate   =    -151.55561145 Ry
     estimated scf accuracy    <       0.00004040 Ry

     iteration #  6     ecut=   120.00 Ry     beta=0.30
     Davidson diagonalization with overlap
     ethr =  1.68E-07,  avg # of iterations =  2.9

     total cpu time spent up to now is      802.1 secs

     total energy              =    -151.55559139 Ry
     Harris-Foulkes estimate   =    -151.55558107 Ry
     estimated scf accuracy    <       0.00000729 Ry

     iteration #  7     ecut=   120.00 Ry     beta=0.30
     Davidson diagonalization with overlap
     ethr =  3.04E-08,  avg # of iterations =  2.0

     total cpu time spent up to now is      823.3 secs

     total energy              =    -151.55559551 Ry
     Harris-Foulkes estimate   =    -151.55559250 Ry
     estimated scf accuracy    <       0.00000024 Ry

     iteration #  8     ecut=   120.00 Ry     beta=0.30
     Davidson diagonalization with overlap
     ethr =  9.94E-10,  avg # of iterations =  3.9

     total cpu time spent up to now is      848.5 secs

     total energy              =    -151.55559583 Ry
     Harris-Foulkes estimate   =    -151.55559561 Ry
     estimated scf accuracy    <       0.00000004 Ry

     iteration #  9     ecut=   120.00 Ry     beta=0.30
     Davidson diagonalization with overlap
     ethr =  1.79E-10,  avg # of iterations =  3.2

     total cpu time spent up to now is      873.0 secs

     total energy              =    -151.55559583 Ry
     Harris-Foulkes estimate   =    -151.55559584 Ry
     estimated scf accuracy    <       0.00000001 Ry

     iteration # 10     ecut=   120.00 Ry     beta=0.30
     Davidson diagonalization with overlap
     ethr =  4.33E-11,  avg # of iterations =  1.4

     total cpu time spent up to now is      889.2 secs

     End of self-consistent calculation

          k = 0.0818 0.1416 0.0626 (  8810 PWs)   bands (ev):

   -34.3107 -34.2303 -14.9913 -14.6529 -14.6456 -14.5800 -14.5297 -14.5096
     0.6342   3.3251   5.4689   6.3402

          k = 0.0818 0.1416 0.1879 (  8821 PWs)   bands (ev):

   -34.2999 -34.2412 -14.9496 -14.6660 -14.6282 -14.6247 -14.5277 -14.5233
     0.9557   2.9346   5.6541   6.4073

          k = 0.0818 0.1416 0.3132 (  8822 PWs)   bands (ev):

   -34.2814 -34.2598 -14.8713 -14.7694 -14.5949 -14.5880 -14.5589 -14.5473
     1.5384   2.2618   6.0374   6.3581

          k = 0.0818 0.3304 0.0626 (  8795 PWs)   bands (ev):

   -34.2931 -34.2365 -14.9260 -14.7213 -14.6823 -14.6512 -14.5783 -14.5122
     1.5402   3.6028   4.8912   5.2476

          k = 0.0818 0.3304 0.1879 (  8792 PWs)   bands (ev):

   -34.2854 -34.2441 -14.9321 -14.7647 -14.6629 -14.6455 -14.5408 -14.5314
     1.8243   3.4336   4.9933   5.1307

          k = 0.0818 0.3304 0.3132 (  8800 PWs)   bands (ev):

   -34.2723 -34.2572 -14.9109 -14.8513 -14.6220 -14.5863 -14.5735 -14.5398
     2.3353   2.9484   5.1065   5.1626

          k = 0.0818 0.5192 0.0626 (  8793 PWs)   bands (ev):

   -34.2751 -34.2462 -14.8651 -14.7634 -14.7246 -14.6929 -14.6270 -14.5147
     2.7994   3.3950   3.9415   5.0996

          k = 0.0818 0.5192 0.1879 (  8782 PWs)   bands (ev):

   -34.2711 -34.2499 -14.9242 -14.8291 -14.6925 -14.6426 -14.5653 -14.5374
     3.0264   3.5879   4.0196   4.7442

          k = 0.0818 0.5192 0.3132 (  8761 PWs)   bands (ev):

   -34.2642 -34.2564 -14.9415 -14.9072 -14.6417 -14.5899 -14.5739 -14.5405
     3.4130   3.7458   4.0812   4.3306

          k = 0.0818-0.4248 0.0626 (  8788 PWs)   bands (ev):

   -34.2828 -34.2415 -14.8886 -14.7541 -14.6969 -14.6851 -14.6068 -14.5137
     2.1555   3.6577   4.2701   5.1513

          k = 0.0818-0.4248 0.1879 (  8788 PWs)   bands (ev):

   -34.2772 -34.2470 -14.9264 -14.8063 -14.6816 -14.6459 -14.5544 -14.5353
     2.4129   3.6673   4.3854   4.8847

          k = 0.0818-0.4248 0.3132 (  8779 PWs)   bands (ev):

   -34.2675 -34.2564 -14.9302 -14.8869 -14.6345 -14.5871 -14.5759 -14.5396
     2.8681   3.3815   4.5633   4.7138

          k = 0.0818-0.2360 0.0626 (  8796 PWs)   bands (ev):

   -34.3030 -34.2326 -14.9629 -14.6817 -14.6654 -14.6132 -14.5508 -14.5107
     1.0156   3.4660   5.3637   5.6030

          k = 0.0818-0.2360 0.1879 (  8800 PWs)   bands (ev):

   -34.2935 -34.2422 -14.9409 -14.7138 -14.6424 -14.6381 -14.5318 -14.5262
     1.3216   3.1608   5.3915   5.7010

          k = 0.0818-0.2360 0.3132 (  8820 PWs)   bands (ev):

   -34.2773 -34.2585 -14.8893 -14.8085 -14.6074 -14.5878 -14.5661 -14.5425
     1.8753   2.5562   5.5926   5.7471

          k = 0.0818-0.0472 0.0626 (  8823 PWs)   bands (ev):

   -34.3148 -34.2293 -15.0066 -14.6379 -14.6335 -14.5602 -14.5174 -14.5094
     0.4337   3.2380   5.5300   6.9146

          k = 0.0818-0.0472 0.1879 (  8809 PWs)   bands (ev):

   -34.3033 -34.2407 -14.9551 -14.6357 -14.6186 -14.6169 -14.5261 -14.5242
     0.7633   2.8082   5.8146   6.9576

          k = 0.0818-0.0472 0.3132 (  8822 PWs)   bands (ev):

   -34.2836 -34.2606 -14.8613 -14.7454 -14.5882 -14.5869 -14.5549 -14.5514
     1.3607   2.1045   6.3358   6.8130

          k = 0.2453 0.4248 0.0626 (  8799 PWs)   bands (ev):

   -34.2752 -34.2462 -14.8562 -14.7709 -14.7117 -14.6977 -14.6175 -14.5346
     2.5421   3.6832   4.0395   5.1118

          k = 0.2453 0.4248 0.1879 (  8784 PWs)   bands (ev):

   -34.2712 -34.2499 -14.9066 -14.8289 -14.7191 -14.6225 -14.5628 -14.5524
     2.7830   3.7615   4.2004   4.8185

          k = 0.2453 0.4248 0.3132 (  8784 PWs)   bands (ev):

   -34.2643 -34.2565 -14.9263 -14.8980 -14.6726 -14.6164 -14.5537 -14.5289
     3.1993   3.6275   4.4161   4.5659

          k = 0.2453 0.6136 0.0626 (  8807 PWs)   bands (ev):

   -34.2671 -34.2521 -14.8248 -14.7804 -14.7493 -14.6838 -14.6402 -14.5413
     3.0694   3.5313   3.7648   5.0831

          k = 0.2453 0.6136 0.1879 (  8800 PWs)   bands (ev):

   -34.2650 -34.2540 -14.8921 -14.8474 -14.7408 -14.6049 -14.5761 -14.5618
     3.2814   3.7101   3.9147   4.7829

          k = 0.2453 0.6136 0.3132 (  8778 PWs)   bands (ev):

   -34.2613 -34.2572 -14.9261 -14.9101 -14.6886 -14.6276 -14.5441 -14.5295
     3.6300   3.8647   4.1135   4.3765

          k = 0.2453-0.3304 0.0626 (  8789 PWs)   bands (ev):

   -34.2845 -34.2406 -14.8933 -14.7452 -14.7002 -14.6767 -14.5957 -14.5231
     2.0079   3.6700   4.4484   5.1697

          k = 0.2453-0.3304 0.1879 (  8785 PWs)   bands (ev):

   -34.2785 -34.2464 -14.9216 -14.7996 -14.6891 -14.6377 -14.5515 -14.5397
     2.2725   3.6267   4.5873   4.9363

          k = 0.2453-0.3304 0.3132 (  8777 PWs)   bands (ev):

   -34.2682 -34.2565 -14.9214 -14.8774 -14.6474 -14.5984 -14.5667 -14.5324
     2.7426   3.2822   4.7573   4.8337

          k = 0.2453-0.1416 0.0626 (  8796 PWs)   bands (ev):

   -34.2995 -34.2339 -14.9501 -14.7015 -14.6627 -14.6312 -14.5630 -14.5079
     1.1967   3.5203   5.2982   5.3405

          k = 0.2453-0.1416 0.1879 (  8799 PWs)   bands (ev):

   -34.2906 -34.2428 -14.9382 -14.7328 -14.6494 -14.6422 -14.5327 -14.5288
     1.4951   3.2602   5.2697   5.4395

          k = 0.2453-0.1416 0.3132 (  8812 PWs)   bands (ev):

   -34.2755 -34.2580 -14.8982 -14.8253 -14.6064 -14.5915 -14.5649 -14.5453
     2.0343   2.6931   5.4056   5.5111

          k = 0.4088 0.7080 0.0626 (  8798 PWs)   bands (ev):

   -34.2705 -34.2495 -14.8457 -14.7671 -14.7414 -14.6903 -14.6350 -14.5286
     3.1487   3.2375   3.8752   5.0870

          k = 0.4088 0.7080 0.1879 (  8787 PWs)   bands (ev):

   -34.2676 -34.2521 -14.9097 -14.8381 -14.7215 -14.6201 -14.5741 -14.5477
     3.3422   3.4631   3.9867   4.7517

          k = 0.4088 0.7080 0.3132 (  8761 PWs)   bands (ev):

   -34.2624 -34.2568 -14.9352 -14.9095 -14.6693 -14.6121 -14.5560 -14.5323
     3.6770   3.7607   4.0689   4.2822

          k = 0.4088-0.2360 0.0626 (  8798 PWs)   bands (ev):

   -34.2795 -34.2435 -14.8794 -14.7608 -14.7085 -14.6892 -14.6180 -14.5089
     2.4327   3.5824   4.0545   5.1234

          k = 0.4088-0.2360 0.1879 (  8788 PWs)   bands (ev):

   -34.2746 -34.2482 -14.9293 -14.8179 -14.6654 -14.6645 -14.5583 -14.5334
     2.6773   3.6961   4.1340   4.8004

          k = 0.4088-0.2360 0.3132 (  8773 PWs)   bands (ev):

   -34.2661 -34.2564 -14.9394 -14.8992 -14.6239 -14.5873 -14.5756 -14.5475
     3.1044   3.5609   4.2958   4.5161

!    total energy              =    -151.55559584 Ry
     Harris-Foulkes estimate   =    -151.55559583 Ry
     estimated scf accuracy    <          3.7E-09 Ry

     The total energy is the sum of the following terms:

     one-electron contribution =     -53.72954168 Ry
     hartree contribution      =      31.68206084 Ry
     xc contribution           =     -23.47509179 Ry
     ewald contribution        =    -106.03302322 Ry

     convergence has been achieved in  10 iterations

     Forces acting on atoms (Ry/au):

     atom    1 type  2   force =     0.00000000    0.00000000    0.00000000
     atom    2 type  2   force =    -0.00000000   -0.00000000   -0.00000000
     atom    3 type  1   force =    -0.00000000   -0.00000000   -0.00000000
     atom    4 type  1   force =    -0.00000000   -0.00000000   -0.00000000
     atom    5 type  1   force =     0.00000000    0.00000000    0.00000000
     atom    6 type  1   force =    -0.00000000    0.00000000   -0.00000000

     Total force =     0.000000     Total SCF correction =     0.000000


     entering subroutine stress ...

          total   stress  (Ry/bohr**3)                   (kbar)     P=   17.66
  -0.00000466  -0.00000000   0.00000000         -0.69     -0.00      0.00
  -0.00000000  -0.00000466  -0.00000000         -0.00     -0.69     -0.00
   0.00000000  -0.00000000   0.00036955          0.00     -0.00     54.36


     number of scf cycles    =   3
     number of bfgs steps    =   2

     enthalpy old            =    -151.5465650068 Ry
     enthalpy new            =    -151.5555958401 Ry

     CASE: enthalpy_new < enthalpy_old

     new trust radius        =       0.1447829290 bohr
     new conv_thr            =       0.0000000100 Ry

     new unit-cell volume =    457.45363 a.u.^3 (    67.78763 Ang^3 )

CELL_PARAMETERS (alat=  7.15200000)
   1.024292318  -0.000000000  -0.000000000
  -0.512146159   0.887063168   0.000000000
   0.000000000  -0.000000000   1.376214412

ATOMIC_POSITIONS (crystal)
Ca       0.333333333   0.666666667   0.250000000
Ca       0.666666667   0.333333333   0.750000000
H        0.333333333   0.666666667   0.750000000
H        0.666666667   0.333333333   0.250000000
H        0.000000000   0.000000000  -0.000000000
H        0.000000000   0.000000000   0.500000000



     Writing output data file CaH2_18GPa-blyp-0000.save
     NEW-OLD atomic charge density approx. for the potential
     NEW k-points:
        k(    1) = (   0.0813570   0.1409144   0.0605526), wk =   0.0370370
        k(    2) = (   0.0813570   0.1409144   0.1816577), wk =   0.0370370
        k(    3) = (   0.0813570   0.1409144   0.3027629), wk =   0.0370370
        k(    4) = (   0.0813570   0.3288003   0.0605526), wk =   0.0740741
        k(    5) = (   0.0813570   0.3288003   0.1816577), wk =   0.0740741
        k(    6) = (   0.0813570   0.3288003   0.3027629), wk =   0.0740741
        k(    7) = (   0.0813570   0.5166862   0.0605526), wk =   0.0740741
        k(    8) = (   0.0813570   0.5166862   0.1816577), wk =   0.0740741
        k(    9) = (   0.0813570   0.5166862   0.3027629), wk =   0.0740741
        k(   10) = (   0.0813570  -0.4227433   0.0605526), wk =   0.0740741
        k(   11) = (   0.0813570  -0.4227433   0.1816577), wk =   0.0740741
        k(   12) = (   0.0813570  -0.4227433   0.3027629), wk =   0.0740741
        k(   13) = (   0.0813570  -0.2348574   0.0605526), wk =   0.0740741
        k(   14) = (   0.0813570  -0.2348574   0.1816577), wk =   0.0740741
        k(   15) = (   0.0813570  -0.2348574   0.3027629), wk =   0.0740741
        k(   16) = (   0.0813570  -0.0469715   0.0605526), wk =   0.0370370
        k(   17) = (   0.0813570  -0.0469715   0.1816577), wk =   0.0370370
        k(   18) = (   0.0813570  -0.0469715   0.3027629), wk =   0.0370370
        k(   19) = (   0.2440710   0.4227433   0.0605526), wk =   0.0370370
        k(   20) = (   0.2440710   0.4227433   0.1816577), wk =   0.0370370
        k(   21) = (   0.2440710   0.4227433   0.3027629), wk =   0.0370370
        k(   22) = (   0.2440710   0.6106292   0.0605526), wk =   0.0740741
        k(   23) = (   0.2440710   0.6106292   0.1816577), wk =   0.0740741
        k(   24) = (   0.2440710   0.6106292   0.3027629), wk =   0.0740741
        k(   25) = (   0.2440710  -0.3288003   0.0605526), wk =   0.0740741
        k(   26) = (   0.2440710  -0.3288003   0.1816577), wk =   0.0740741
        k(   27) = (   0.2440710  -0.3288003   0.3027629), wk =   0.0740741
        k(   28) = (   0.2440710  -0.1409144   0.0605526), wk =   0.0370370
        k(   29) = (   0.2440710  -0.1409144   0.1816577), wk =   0.0370370
        k(   30) = (   0.2440710  -0.1409144   0.3027629), wk =   0.0370370
        k(   31) = (   0.4067849   0.7045721   0.0605526), wk =   0.0370370
        k(   32) = (   0.4067849   0.7045721   0.1816577), wk =   0.0370370
        k(   33) = (   0.4067849   0.7045721   0.3027629), wk =   0.0370370
        k(   34) = (   0.4067849  -0.2348574   0.0605526), wk =   0.0370370
        k(   35) = (   0.4067849  -0.2348574   0.1816577), wk =   0.0370370
        k(   36) = (   0.4067849  -0.2348574   0.3027629), wk =   0.0370370
     extrapolated charge   25.02712, renormalised to   24.00000

     total cpu time spent up to now is     1012.6 secs

     per-process dynamical memory:    52.7 Mb

     Self-consistent Calculation

     iteration #  1     ecut=   120.00 Ry     beta=0.30
     Davidson diagonalization with overlap
     ethr =  1.00E-06,  avg # of iterations =  7.2

     total cpu time spent up to now is     1055.5 secs

     total energy              =    -151.50840734 Ry
     Harris-Foulkes estimate   =    -150.06482655 Ry
     estimated scf accuracy    <       0.03832332 Ry

     iteration #  2     ecut=   120.00 Ry     beta=0.30
     Davidson diagonalization with overlap
     ethr =  1.60E-04,  avg # of iterations =  3.9

     total cpu time spent up to now is     1081.5 secs

     total energy              =    -151.55666775 Ry
     Harris-Foulkes estimate   =    -151.55501049 Ry
     estimated scf accuracy    <       0.00222058 Ry

     iteration #  3     ecut=   120.00 Ry     beta=0.30
     Davidson diagonalization with overlap
     ethr =  9.25E-06,  avg # of iterations =  1.6

     total cpu time spent up to now is     1098.0 secs

     total energy              =    -151.55882552 Ry
     Harris-Foulkes estimate   =    -151.55675620 Ry
     estimated scf accuracy    <       0.00148129 Ry

     iteration #  4     ecut=   120.00 Ry     beta=0.30
     Davidson diagonalization with overlap
     ethr =  6.17E-06,  avg # of iterations =  2.8

     total cpu time spent up to now is     1120.0 secs

     total energy              =    -151.55911960 Ry
     Harris-Foulkes estimate   =    -151.55907125 Ry
     estimated scf accuracy    <       0.00002566 Ry

     iteration #  5     ecut=   120.00 Ry     beta=0.30
     Davidson diagonalization with overlap
     ethr =  1.07E-07,  avg # of iterations =  4.1

     total cpu time spent up to now is     1143.2 secs

     total energy              =    -151.55911091 Ry
     Harris-Foulkes estimate   =    -151.55913467 Ry
     estimated scf accuracy    <       0.00002230 Ry

     iteration #  6     ecut=   120.00 Ry     beta=0.30
     Davidson diagonalization with overlap
     ethr =  9.29E-08,  avg # of iterations =  2.8

     total cpu time spent up to now is     1166.2 secs

     total energy              =    -151.55912353 Ry
     Harris-Foulkes estimate   =    -151.55911674 Ry
     estimated scf accuracy    <       0.00000408 Ry

     iteration #  7     ecut=   120.00 Ry     beta=0.30
     Davidson diagonalization with overlap
     ethr =  1.70E-08,  avg # of iterations =  2.0

     total cpu time spent up to now is     1188.6 secs

     total energy              =    -151.55912624 Ry
     Harris-Foulkes estimate   =    -151.55912414 Ry
     estimated scf accuracy    <       0.00000010 Ry

     iteration #  8     ecut=   120.00 Ry     beta=0.30
     Davidson diagonalization with overlap
     ethr =  3.99E-10,  avg # of iterations =  3.9

     total cpu time spent up to now is     1212.8 secs

     total energy              =    -151.55912641 Ry
     Harris-Foulkes estimate   =    -151.55912629 Ry
     estimated scf accuracy    <       0.00000001 Ry

     iteration #  9     ecut=   120.00 Ry     beta=0.30
     Davidson diagonalization with overlap
     ethr =  4.88E-11,  avg # of iterations =  3.0

     total cpu time spent up to now is     1235.2 secs

     End of self-consistent calculation

          k = 0.0814 0.1409 0.0606 (  8810 PWs)   bands (ev):

   -34.7989 -34.7370 -15.4492 -15.1303 -15.1220 -15.0966 -15.0381 -15.0152
     0.3775   3.0238   4.9174   6.0444

          k = 0.0814 0.1409 0.1817 (  8821 PWs)   bands (ev):

   -34.7906 -34.7455 -15.4116 -15.1655 -15.1118 -15.1061 -15.0339 -15.0293
     0.6727   2.5789   5.1900   6.0744

          k = 0.0814 0.1409 0.3028 (  8822 PWs)   bands (ev):

   -34.7764 -34.7597 -15.3422 -15.2540 -15.0821 -15.0818 -15.0537 -15.0513
     1.2134   1.9011   5.6205   5.9730

          k = 0.0814 0.3288 0.0606 (  8795 PWs)   bands (ev):

   -34.7845 -34.7409 -15.3919 -15.1953 -15.1615 -15.1454 -15.0874 -15.0198
     1.2672   3.3130   4.6174   4.7516

          k = 0.0814 0.3288 0.1817 (  8792 PWs)   bands (ev):

   -34.7786 -34.7468 -15.3909 -15.2434 -15.1477 -15.1303 -15.0562 -15.0367
     1.5279   3.0857   4.6534   4.7582

          k = 0.0814 0.3288 0.3028 (  8800 PWs)   bands (ev):

   -34.7685 -34.7569 -15.3684 -15.3163 -15.1089 -15.0909 -15.0699 -15.0547
     2.0010   2.5829   4.7517   4.8177

          k = 0.0814 0.5167 0.0606 (  8793 PWs)   bands (ev):

   -34.7700 -34.7479 -15.3356 -15.2386 -15.2152 -15.1651 -15.1313 -15.0236
     2.5147   3.1082   3.6825   4.6361

          k = 0.0814 0.5167 0.1817 (  8782 PWs)   bands (ev):

   -34.7670 -34.7507 -15.3789 -15.2987 -15.1743 -15.1349 -15.0823 -15.0421
     2.7198   3.2721   3.7276   4.3276

          k = 0.0814 0.5167 0.3028 (  8761 PWs)   bands (ev):

   -34.7616 -34.7557 -15.3911 -15.3622 -15.1278 -15.0891 -15.0844 -15.0585
     3.0709   3.3810   3.7601   3.9759

          k = 0.0814-0.4227 0.0606 (  8788 PWs)   bands (ev):

   -34.7761 -34.7444 -15.3584 -15.2271 -15.1880 -15.1611 -15.1132 -15.0221
     1.8753   3.3716   4.0053   4.6754

          k = 0.0814-0.4227 0.1817 (  8788 PWs)   bands (ev):

   -34.7719 -34.7486 -15.3828 -15.2787 -15.1646 -15.1351 -15.0712 -15.0401
     2.1104   3.3323   4.0888   4.4803

          k = 0.0814-0.4227 0.3028 (  8779 PWs)   bands (ev):

   -34.7644 -34.7559 -15.3825 -15.3453 -15.1210 -15.0912 -15.0782 -15.0569
     2.5299   3.0157   4.2328   4.3622

          k = 0.0814-0.2349 0.0606 (  8796 PWs)   bands (ev):

   -34.7926 -34.7385 -15.4244 -15.1579 -15.1414 -15.1195 -15.0609 -15.0173
     0.7513   3.1696   4.8374   5.3223

          k = 0.0814-0.2349 0.1817 (  8800 PWs)   bands (ev):

   -34.7852 -34.7458 -15.4017 -15.2019 -15.1283 -15.1192 -15.0427 -15.0330
     1.0322   2.8069   4.9566   5.3894

          k = 0.0814-0.2349 0.3028 (  8820 PWs)   bands (ev):

   -34.7728 -34.7584 -15.3536 -15.2828 -15.0946 -15.0875 -15.0610 -15.0528
     1.5459   2.1929   5.2083   5.3924

          k = 0.0814-0.0470 0.0606 (  8823 PWs)   bands (ev):

   -34.8023 -34.7365 -15.4625 -15.1158 -15.1112 -15.0835 -15.0235 -15.0143
     0.1815   2.9343   4.9636   6.6024

          k = 0.0814-0.0470 0.1817 (  8809 PWs)   bands (ev):

   -34.7934 -34.7453 -15.4175 -15.1445 -15.1013 -15.0982 -15.0296 -15.0273
     0.4839   2.4523   5.3288   6.5993

          k = 0.0814-0.0470 0.3028 (  8822 PWs)   bands (ev):

   -34.7783 -34.7606 -15.3364 -15.2374 -15.0768 -15.0758 -15.0499 -15.0498
     1.0383   1.7455   5.8889   6.3932

          k = 0.2441 0.4227 0.0606 (  8799 PWs)   bands (ev):

   -34.7701 -34.7479 -15.3307 -15.2377 -15.2003 -15.1806 -15.1177 -15.0431
     2.2596   3.4017   3.7724   4.6523

          k = 0.2441 0.4227 0.1817 (  8784 PWs)   bands (ev):

   -34.7670 -34.7507 -15.3656 -15.2969 -15.1911 -15.1249 -15.0685 -15.0650
     2.4782   3.4368   3.9081   4.4097

          k = 0.2441 0.4227 0.3028 (  8784 PWs)   bands (ev):

   -34.7618 -34.7558 -15.3785 -15.3540 -15.1535 -15.1102 -15.0682 -15.0498
     2.8589   3.2633   4.0885   4.2131

          k = 0.2441 0.6106 0.0606 (  8807 PWs)   bands (ev):

   -34.7637 -34.7522 -15.3020 -15.2484 -15.2315 -15.1697 -15.1374 -15.0502
     2.7873   3.2508   3.4946   4.6354

          k = 0.2441 0.6106 0.1817 (  8800 PWs)   bands (ev):

   -34.7621 -34.7537 -15.3519 -15.3134 -15.2095 -15.1111 -15.0847 -15.0702
     2.9770   3.3984   3.6167   4.3708

          k = 0.2441 0.6106 0.3028 (  8778 PWs)   bands (ev):

   -34.7593 -34.7561 -15.3776 -15.3640 -15.1675 -15.1195 -15.0625 -15.0510
     3.2888   3.5080   3.7851   4.0171

          k = 0.2441-0.3288 0.0606 (  8789 PWs)   bands (ev):

   -34.7775 -34.7438 -15.3632 -15.2156 -15.1813 -15.1681 -15.1002 -15.0312
     1.7292   3.3850   4.1813   4.6914

          k = 0.2441-0.3288 0.1817 (  8785 PWs)   bands (ev):

   -34.7729 -34.7483 -15.3800 -15.2721 -15.1659 -15.1337 -15.0618 -15.0492
     1.9711   3.2881   4.2924   4.5307

          k = 0.2441-0.3288 0.3028 (  8777 PWs)   bands (ev):

   -34.7650 -34.7561 -15.3756 -15.3373 -15.1313 -15.0966 -15.0737 -15.0508
     2.4047   2.9159   4.4255   4.4810

          k = 0.2441-0.1409 0.0606 (  8796 PWs)   bands (ev):

   -34.7898 -34.7392 -15.4131 -15.1768 -15.1364 -15.1349 -15.0745 -15.0150
     0.9292   3.2263   4.8009   5.0449

          k = 0.2441-0.1409 0.1817 (  8799 PWs)   bands (ev):

   -34.7829 -34.7461 -15.3981 -15.2174 -15.1383 -15.1203 -15.0500 -15.0314
     1.2031   2.9080   4.8493   5.1285

          k = 0.2441-0.1409 0.3028 (  8812 PWs)   bands (ev):

   -34.7713 -34.7578 -15.3596 -15.2959 -15.0941 -15.0922 -15.0597 -15.0589
     1.7031   2.3289   5.0321   5.1632

          k = 0.4068 0.7046 0.0606 (  8798 PWs)   bands (ev):

   -34.7664 -34.7503 -15.3184 -15.2372 -15.2302 -15.1687 -15.1362 -15.0373
     2.8629   2.9558   3.6113   4.6328

          k = 0.4068 0.7046 0.1817 (  8787 PWs)   bands (ev):

   -34.7642 -34.7522 -15.3664 -15.3061 -15.1949 -15.1209 -15.0870 -15.0544
     3.0369   3.1517   3.6917   4.3355

          k = 0.4068 0.7046 0.3028 (  8761 PWs)   bands (ev):

   -34.7602 -34.7558 -15.3854 -15.3639 -15.1515 -15.1065 -15.0717 -15.0523
     3.3324   3.4072   3.7428   3.9224

          k = 0.4068-0.2349 0.0606 (  8798 PWs)   bands (ev):

   -34.7735 -34.7459 -15.3491 -15.2361 -15.2009 -15.1595 -15.1246 -15.0178
     2.1502   3.2937   3.7954   4.6522

          k = 0.4068-0.2349 0.1817 (  8788 PWs)   bands (ev):

   -34.7698 -34.7494 -15.3841 -15.2892 -15.1621 -15.1407 -15.0773 -15.0370
     2.3729   3.3683   3.8414   4.3904

          k = 0.4068-0.2349 0.3028 (  8773 PWs)   bands (ev):

   -34.7632 -34.7558 -15.3897 -15.3556 -15.1081 -15.1005 -15.0701 -15.0685
     2.7649   3.1955   3.9694   4.1638

!    total energy              =    -151.55912642 Ry
     Harris-Foulkes estimate   =    -151.55912641 Ry
     estimated scf accuracy    <          2.9E-09 Ry

     The total energy is the sum of the following terms:

     one-electron contribution =     -55.98808716 Ry
     hartree contribution      =      32.38472940 Ry
     xc contribution           =     -23.41864499 Ry
     ewald contribution        =    -104.53712366 Ry

     convergence has been achieved in   9 iterations

     Forces acting on atoms (Ry/au):

     atom    1 type  2   force =     0.00000000    0.00000000    0.00000000
     atom    2 type  2   force =    -0.00000000   -0.00000000   -0.00000000
     atom    3 type  1   force =    -0.00000000   -0.00000000   -0.00000000
     atom    4 type  1   force =     0.00000000   -0.00000000    0.00000000
     atom    5 type  1   force =     0.00000000    0.00000000    0.00000000
     atom    6 type  1   force =     0.00000000    0.00000000   -0.00000000

     Total force =     0.000000     Total SCF correction =     0.000000


     entering subroutine stress ...

          total   stress  (Ry/bohr**3)                   (kbar)     P=   -4.06
  -0.00011159  -0.00000000  -0.00000000        -16.42     -0.00     -0.00
   0.00000000  -0.00011159  -0.00000000          0.00    -16.42     -0.00
   0.00000000   0.00000000   0.00014029          0.00      0.00     20.64


     number of scf cycles    =   4
     number of bfgs steps    =   3

     enthalpy old            =    -151.5555958401 Ry
     enthalpy new            =    -151.5591264162 Ry

     CASE: enthalpy_new < enthalpy_old

     new trust radius        =       0.0752524030 bohr
     new conv_thr            =       0.0000000100 Ry

     new unit-cell volume =    463.92012 a.u.^3 (    68.74587 Ang^3 )

CELL_PARAMETERS (alat=  7.15200000)
   1.022551339  -0.000000000  -0.000000000
  -0.511275669   0.885555436   0.000000000
   0.000000000  -0.000000000   1.400424866

ATOMIC_POSITIONS (crystal)
Ca       0.333333333   0.666666667   0.250000000
Ca       0.666666667   0.333333333   0.750000000
H        0.333333333   0.666666667   0.750000000
H        0.666666667   0.333333333   0.250000000
H        0.000000000   0.000000000   0.000000000
H        0.000000000   0.000000000   0.500000000



     Writing output data file CaH2_18GPa-blyp-0000.save
     NEW-OLD atomic charge density approx. for the potential
     NEW k-points:
        k(    1) = (   0.0814955   0.1411543   0.0595058), wk =   0.0370370
        k(    2) = (   0.0814955   0.1411543   0.1785173), wk =   0.0370370
        k(    3) = (   0.0814955   0.1411543   0.2975288), wk =   0.0370370
        k(    4) = (   0.0814955   0.3293601   0.0595058), wk =   0.0740741
        k(    5) = (   0.0814955   0.3293601   0.1785173), wk =   0.0740741
        k(    6) = (   0.0814955   0.3293601   0.2975288), wk =   0.0740741
        k(    7) = (   0.0814955   0.5175659   0.0595058), wk =   0.0740741
        k(    8) = (   0.0814955   0.5175659   0.1785173), wk =   0.0740741
        k(    9) = (   0.0814955   0.5175659   0.2975288), wk =   0.0740741
        k(   10) = (   0.0814955  -0.4234630   0.0595058), wk =   0.0740741
        k(   11) = (   0.0814955  -0.4234630   0.1785173), wk =   0.0740741
        k(   12) = (   0.0814955  -0.4234630   0.2975288), wk =   0.0740741
        k(   13) = (   0.0814955  -0.2352572   0.0595058), wk =   0.0740741
        k(   14) = (   0.0814955  -0.2352572   0.1785173), wk =   0.0740741
        k(   15) = (   0.0814955  -0.2352572   0.2975288), wk =   0.0740741
        k(   16) = (   0.0814955  -0.0470514   0.0595058), wk =   0.0370370
        k(   17) = (   0.0814955  -0.0470514   0.1785173), wk =   0.0370370
        k(   18) = (   0.0814955  -0.0470514   0.2975288), wk =   0.0370370
        k(   19) = (   0.2444865   0.4234630   0.0595058), wk =   0.0370370
        k(   20) = (   0.2444865   0.4234630   0.1785173), wk =   0.0370370
        k(   21) = (   0.2444865   0.4234630   0.2975288), wk =   0.0370370
        k(   22) = (   0.2444865   0.6116688   0.0595058), wk =   0.0740741
        k(   23) = (   0.2444865   0.6116688   0.1785173), wk =   0.0740741
        k(   24) = (   0.2444865   0.6116688   0.2975288), wk =   0.0740741
        k(   25) = (   0.2444865  -0.3293601   0.0595058), wk =   0.0740741
        k(   26) = (   0.2444865  -0.3293601   0.1785173), wk =   0.0740741
        k(   27) = (   0.2444865  -0.3293601   0.2975288), wk =   0.0740741
        k(   28) = (   0.2444865  -0.1411543   0.0595058), wk =   0.0370370
        k(   29) = (   0.2444865  -0.1411543   0.1785173), wk =   0.0370370
        k(   30) = (   0.2444865  -0.1411543   0.2975288), wk =   0.0370370
        k(   31) = (   0.4074775   0.7057717   0.0595058), wk =   0.0370370
        k(   32) = (   0.4074775   0.7057717   0.1785173), wk =   0.0370370
        k(   33) = (   0.4074775   0.7057717   0.2975288), wk =   0.0370370
        k(   34) = (   0.4074775  -0.2352572   0.0595058), wk =   0.0370370
        k(   35) = (   0.4074775  -0.2352572   0.1785173), wk =   0.0370370
        k(   36) = (   0.4074775  -0.2352572   0.2975288), wk =   0.0370370
     extrapolated charge   24.33438, renormalised to   24.00000

     total cpu time spent up to now is     1357.0 secs

     per-process dynamical memory:    52.7 Mb

     Self-consistent Calculation

     iteration #  1     ecut=   120.00 Ry     beta=0.30
     Davidson diagonalization with overlap
     ethr =  1.00E-06,  avg # of iterations =  6.2

     total cpu time spent up to now is     1394.1 secs

     total energy              =    -151.55399940 Ry
     Harris-Foulkes estimate   =    -151.07004275 Ry
     estimated scf accuracy    <       0.00463110 Ry

     iteration #  2     ecut=   120.00 Ry     beta=0.30
     Davidson diagonalization with overlap
     ethr =  1.93E-05,  avg # of iterations =  3.7

     total cpu time spent up to now is     1418.0 secs

     total energy              =    -151.55955506 Ry
     Harris-Foulkes estimate   =    -151.55913372 Ry
     estimated scf accuracy    <       0.00022797 Ry

     iteration #  3     ecut=   120.00 Ry     beta=0.30
     Davidson diagonalization with overlap
     ethr =  9.50E-07,  avg # of iterations =  1.8

     total cpu time spent up to now is     1433.7 secs

     total energy              =    -151.56005059 Ry
     Harris-Foulkes estimate   =    -151.55956551 Ry
     estimated scf accuracy    <       0.00015062 Ry

     iteration #  4     ecut=   120.00 Ry     beta=0.30
     Davidson diagonalization with overlap
     ethr =  6.28E-07,  avg # of iterations =  2.3

     total cpu time spent up to now is     1454.4 secs

     total energy              =    -151.56009153 Ry
     Harris-Foulkes estimate   =    -151.56007490 Ry
     estimated scf accuracy    <       0.00000287 Ry

     iteration #  5     ecut=   120.00 Ry     beta=0.30
     Davidson diagonalization with overlap
     ethr =  1.20E-08,  avg # of iterations =  4.3

     total cpu time spent up to now is     1475.0 secs

     total energy              =    -151.56009454 Ry
     Harris-Foulkes estimate   =    -151.56009300 Ry
     estimated scf accuracy    <       0.00000171 Ry

     iteration #  6     ecut=   120.00 Ry     beta=0.30
     Davidson diagonalization with overlap
     ethr =  7.14E-09,  avg # of iterations =  2.0

     total cpu time spent up to now is     1495.3 secs

     total energy              =    -151.56009508 Ry
     Harris-Foulkes estimate   =    -151.56009476 Ry
     estimated scf accuracy    <       0.00000020 Ry

     iteration #  7     ecut=   120.00 Ry     beta=0.30
     Davidson diagonalization with overlap
     ethr =  8.28E-10,  avg # of iterations =  2.6

     total cpu time spent up to now is     1514.9 secs

     End of self-consistent calculation

          k = 0.0815 0.1412 0.0595 (  8810 PWs)   bands (ev):

   -34.9418 -34.8866 -15.5837 -15.2677 -15.2597 -15.2514 -15.1871 -15.1632
     0.3004   2.9243   4.6962   5.9745

          k = 0.0815 0.1412 0.1785 (  8821 PWs)   bands (ev):

   -34.9344 -34.8941 -15.5475 -15.3150 -15.2517 -15.2442 -15.1841 -15.1758
     0.5832   2.4527   5.0145   5.9821

          k = 0.0815 0.1412 0.2975 (  8822 PWs)   bands (ev):

   -34.9217 -34.9069 -15.4813 -15.3978 -15.2257 -15.2229 -15.1989 -15.1974
     1.1042   1.7743   5.4720   5.8475

          k = 0.0815 0.3294 0.0595 (  8795 PWs)   bands (ev):

   -34.9283 -34.8894 -15.5289 -15.3346 -15.3066 -15.2863 -15.2381 -15.1693
     1.1913   3.2291   4.5268   4.5767

          k = 0.0815 0.3294 0.1785 (  8792 PWs)   bands (ev):

   -34.9230 -34.8947 -15.5253 -15.3849 -15.2915 -15.2697 -15.2108 -15.1845
     1.4404   2.9710   4.5205   4.6583

          k = 0.0815 0.3294 0.2975 (  8800 PWs)   bands (ev):

   -34.9140 -34.9037 -15.5021 -15.4526 -15.2529 -15.2393 -15.2169 -15.2060
     1.8948   2.4608   4.6335   4.7106

          k = 0.0815 0.5176 0.0595 (  8793 PWs)   bands (ev):

   -34.9149 -34.8952 -15.4744 -15.3795 -15.3612 -15.3012 -15.2822 -15.1739
     2.4420   3.0380   3.6122   4.4519

          k = 0.0815 0.5176 0.1785 (  8782 PWs)   bands (ev):

   -34.9122 -34.8976 -15.5118 -15.4371 -15.3186 -15.2771 -15.2386 -15.1906
     2.6355   3.1876   3.6405   4.1710

          k = 0.0815 0.5176 0.2975 (  8761 PWs)   bands (ev):

   -34.9074 -34.9021 -15.5219 -15.4951 -15.2720 -15.2400 -15.2348 -15.2111
     2.9682   3.2711   3.6578   3.8564

          k = 0.0815-0.4235 0.0595 (  8788 PWs)   bands (ev):

   -34.9205 -34.8923 -15.4967 -15.3670 -15.3350 -15.2982 -15.2637 -15.1722
     1.8008   3.2964   3.9368   4.4864

          k = 0.0815-0.4235 0.1785 (  8788 PWs)   bands (ev):

   -34.9167 -34.8960 -15.5163 -15.4180 -15.3090 -15.2762 -15.2269 -15.1883
     2.0245   3.2301   4.0030   4.3341

          k = 0.0815-0.4235 0.2975 (  8779 PWs)   bands (ev):

   -34.9100 -34.9025 -15.5143 -15.4793 -15.2652 -15.2417 -15.2269 -15.2092
     2.4256   2.8976   4.1301   4.2470

          k = 0.0815-0.2353 0.0595 (  8796 PWs)   bands (ev):

   -34.9358 -34.8876 -15.5600 -15.2964 -15.2817 -15.2681 -15.2111 -15.1661
     0.6746   3.0769   4.6269   5.2552

          k = 0.0815-0.2353 0.1785 (  8800 PWs)   bands (ev):

   -34.9293 -34.8941 -15.5370 -15.3469 -15.2704 -15.2576 -15.1956 -15.1801
     0.9436   2.6850   4.7953   5.3044

          k = 0.0815-0.2353 0.2975 (  8820 PWs)   bands (ev):

   -34.9182 -34.9054 -15.4899 -15.4227 -15.2379 -15.2327 -15.2065 -15.2022
     1.4379   2.0680   5.0760   5.2809

          k = 0.0815-0.0471 0.0595 (  8823 PWs)   bands (ev):

   -34.9450 -34.8864 -15.5965 -15.2528 -15.2477 -15.2416 -15.1715 -15.1619
     0.1041   2.8313   4.7359   6.5288

          k = 0.0815-0.0471 0.1785 (  8809 PWs)   bands (ev):

   -34.9371 -34.8942 -15.5538 -15.2974 -15.2400 -15.2362 -15.1773 -15.1734
     0.3941   2.3240   5.1430   6.4968

          k = 0.0815-0.0471 0.2975 (  8822 PWs)   bands (ev):

   -34.9237 -34.9078 -15.4771 -15.3840 -15.2186 -15.2164 -15.1950 -15.1934
     0.9284   1.6176   5.7257   6.2509

          k = 0.2445 0.4235 0.0595 (  8799 PWs)   bands (ev):

   -34.9149 -34.8952 -15.4705 -15.3761 -15.3433 -15.3234 -15.2657 -15.1943
     2.1865   3.3302   3.7055   4.4701

          k = 0.2445 0.4235 0.1785 (  8784 PWs)   bands (ev):

   -34.9122 -34.8977 -15.4997 -15.4344 -15.3286 -15.2751 -15.2231 -15.2137
     2.3936   3.3430   3.8281   4.2578

          k = 0.2445 0.4235 0.2975 (  8784 PWs)   bands (ev):

   -34.9075 -34.9022 -15.5100 -15.4868 -15.2945 -15.2569 -15.2215 -15.2062
     2.7560   3.1489   3.9890   4.0958

          k = 0.2445 0.6117 0.0595 (  8807 PWs)   bands (ev):

   -34.9092 -34.8989 -15.4430 -15.3892 -15.3700 -15.3132 -15.2851 -15.2020
     2.7160   3.1824   3.4263   4.4586

          k = 0.2445 0.6117 0.1785 (  8800 PWs)   bands (ev):

   -34.9077 -34.9003 -15.4863 -15.4500 -15.3461 -15.2625 -15.2382 -15.2204
     2.8939   3.3152   3.5345   4.2154

          k = 0.2445 0.6117 0.2975 (  8778 PWs)   bands (ev):

   -34.9052 -34.9024 -15.5088 -15.4960 -15.3081 -15.2652 -15.2183 -15.2080
     3.1873   3.4028   3.6850   3.8940

          k = 0.2445-0.3294 0.0595 (  8789 PWs)   bands (ev):

   -34.9218 -34.8918 -15.5016 -15.3546 -15.3250 -15.3107 -15.2492 -15.1815
     1.6544   3.3078   4.1149   4.5013

          k = 0.2445-0.3294 0.1785 (  8785 PWs)   bands (ev):

   -34.9177 -34.8958 -15.5140 -15.4113 -15.3052 -15.2803 -15.2158 -15.1980
     1.8849   3.1821   4.2102   4.3836

          k = 0.2445-0.3294 0.2975 (  8777 PWs)   bands (ev):

   -34.9106 -34.9027 -15.5079 -15.4716 -15.2732 -15.2461 -15.2222 -15.2056
     2.3000   2.7967   4.3224   4.3659

          k = 0.2445-0.1412 0.0595 (  8796 PWs)   bands (ev):

   -34.9332 -34.8881 -15.5492 -15.3157 -15.2859 -15.2720 -15.2262 -15.1639
     0.8527   3.1367   4.5954   4.9773

          k = 0.2445-0.1412 0.1785 (  8799 PWs)   bands (ev):

   -34.9270 -34.8943 -15.5331 -15.3611 -15.2818 -15.2576 -15.2045 -15.1785
     1.1149   2.7883   4.6940   5.0434

          k = 0.2445-0.1412 0.2975 (  8812 PWs)   bands (ev):

   -34.9168 -34.9047 -15.4948 -15.4342 -15.2430 -15.2327 -15.2120 -15.2037
     1.5958   2.2049   4.9053   5.0546

          k = 0.4075 0.7058 0.0595 (  8798 PWs)   bands (ev):

   -34.9116 -34.8972 -15.4580 -15.3756 -15.3756 -15.3076 -15.2863 -15.1883
     2.7888   2.8887   3.5422   4.4528

          k = 0.4075 0.7058 0.1785 (  8787 PWs)   bands (ev):

   -34.9096 -34.8990 -15.4999 -15.4437 -15.3341 -15.2688 -15.2420 -15.2040
     2.9523   3.0703   3.6078   4.1778

          k = 0.4075 0.7058 0.2975 (  8761 PWs)   bands (ev):

   -34.9060 -34.9021 -15.5163 -15.4962 -15.2934 -15.2535 -15.2260 -15.2079
     3.2291   3.3056   3.6420   3.7965

          k = 0.4075-0.2353 0.0595 (  8798 PWs)   bands (ev):

   -34.9181 -34.8935 -15.4876 -15.3770 -15.3477 -15.2943 -15.2766 -15.1678
     2.0764   3.2216   3.7249   4.4648

          k = 0.4075-0.2353 0.1785 (  8788 PWs)   bands (ev):

   -34.9148 -34.8967 -15.5170 -15.4282 -15.3110 -15.2775 -15.2341 -15.1850
     2.2877   3.2749   3.7537   4.2397

          k = 0.4075-0.2353 0.2975 (  8773 PWs)   bands (ev):

   -34.9089 -34.9023 -15.5209 -15.4891 -15.2552 -15.2483 -15.2262 -15.2145
     2.6615   3.0797   3.8677   4.0473

!    total energy              =    -151.56009570 Ry
     Harris-Foulkes estimate   =    -151.56009511 Ry
     estimated scf accuracy    <          7.8E-09 Ry

     The total energy is the sum of the following terms:

     one-electron contribution =     -56.70705375 Ry
     hartree contribution      =      32.61785330 Ry
     xc contribution           =     -23.40446281 Ry
     ewald contribution        =    -104.06643244 Ry

     convergence has been achieved in   7 iterations

     Forces acting on atoms (Ry/au):

     atom    1 type  2   force =     0.00000000   -0.00000000   -0.00000000
     atom    2 type  2   force =     0.00000000    0.00000000    0.00000000
     atom    3 type  1   force =    -0.00000000   -0.00000000    0.00000000
     atom    4 type  1   force =     0.00000000    0.00000000   -0.00000000
     atom    5 type  1   force =    -0.00000000   -0.00000000   -0.00000000
     atom    6 type  1   force =     0.00000000   -0.00000000    0.00000000

     Total force =     0.000000     Total SCF correction =     0.000000


     entering subroutine stress ...

          total   stress  (Ry/bohr**3)                   (kbar)     P=   -9.04
  -0.00012110  -0.00000000   0.00000000        -17.81     -0.00      0.00
  -0.00000000  -0.00012110  -0.00000000         -0.00    -17.81     -0.00
   0.00000000  -0.00000000   0.00005788          0.00     -0.00      8.51


     number of scf cycles    =   5
     number of bfgs steps    =   4

     enthalpy old            =    -151.5591264162 Ry
     enthalpy new            =    -151.5600957050 Ry

     CASE: enthalpy_new < enthalpy_old

     new trust radius        =       0.0807236588 bohr
     new conv_thr            =       0.0000000100 Ry

     new unit-cell volume =    466.73609 a.u.^3 (    69.16315 Ang^3 )

CELL_PARAMETERS (alat=  7.15200000)
   1.016173154  -0.000000000  -0.000000000
  -0.508086577   0.880031766   0.000000000
   0.000000000  -0.000000000   1.426667599

ATOMIC_POSITIONS (crystal)
Ca       0.333333333   0.666666667   0.250000000
Ca       0.666666667   0.333333333   0.750000000
H        0.333333333   0.666666667   0.750000000
H        0.666666667   0.333333333   0.250000000
H        0.000000000   0.000000000   0.000000000
H        0.000000000   0.000000000   0.500000000



     Writing output data file CaH2_18GPa-blyp-0000.save
     NEW-OLD atomic charge density approx. for the potential
     NEW k-points:
        k(    1) = (   0.0820070   0.1420403   0.0584112), wk =   0.0370370
        k(    2) = (   0.0820070   0.1420403   0.1752335), wk =   0.0370370
        k(    3) = (   0.0820070   0.1420403   0.2920559), wk =   0.0370370
        k(    4) = (   0.0820070   0.3314274   0.0584112), wk =   0.0740741
        k(    5) = (   0.0820070   0.3314274   0.1752335), wk =   0.0740741
        k(    6) = (   0.0820070   0.3314274   0.2920559), wk =   0.0740741
        k(    7) = (   0.0820070   0.5208145   0.0584112), wk =   0.0740741
        k(    8) = (   0.0820070   0.5208145   0.1752335), wk =   0.0740741
        k(    9) = (   0.0820070   0.5208145   0.2920559), wk =   0.0740741
        k(   10) = (   0.0820070  -0.4261210   0.0584112), wk =   0.0740741
        k(   11) = (   0.0820070  -0.4261210   0.1752335), wk =   0.0740741
        k(   12) = (   0.0820070  -0.4261210   0.2920559), wk =   0.0740741
        k(   13) = (   0.0820070  -0.2367339   0.0584112), wk =   0.0740741
        k(   14) = (   0.0820070  -0.2367339   0.1752335), wk =   0.0740741
        k(   15) = (   0.0820070  -0.2367339   0.2920559), wk =   0.0740741
        k(   16) = (   0.0820070  -0.0473468   0.0584112), wk =   0.0370370
        k(   17) = (   0.0820070  -0.0473468   0.1752335), wk =   0.0370370
        k(   18) = (   0.0820070  -0.0473468   0.2920559), wk =   0.0370370
        k(   19) = (   0.2460211   0.4261210   0.0584112), wk =   0.0370370
        k(   20) = (   0.2460211   0.4261210   0.1752335), wk =   0.0370370
        k(   21) = (   0.2460211   0.4261210   0.2920559), wk =   0.0370370
        k(   22) = (   0.2460211   0.6155081   0.0584112), wk =   0.0740741
        k(   23) = (   0.2460211   0.6155081   0.1752335), wk =   0.0740741
[...]
     --------------------
     sticks:   dense  smooth     PW     G-vecs:    dense   smooth      PW
     Sum        1723    1723    499                82025    82025   12621



     bravais-lattice index     =            4
     lattice parameter (alat)  =       7.1520  a.u.
     unit-cell volume          =     461.3062 (a.u.)^3
     number of atoms/cell      =            6
     number of atomic types    =            2
     number of electrons       =        24.00
     number of Kohn-Sham states=           12
     kinetic-energy cutoff     =     120.0000  Ry
     charge density cutoff     =     480.0000  Ry
     convergence threshold     =      1.0E-08
     mixing beta               =       0.3000
     number of iterations used =           16  local-TF  mixing
     Exchange-correlation      = BLYP ( 1 3 1 3 0)
     EXX-fraction              =        0.00

     celldm(1)=   7.152000  celldm(2)=   0.000000  celldm(3)=   1.250400
     celldm(4)=   0.000000  celldm(5)=   0.000000  celldm(6)=   0.000000

     crystal axes: (cart. coord. in units of alat)
               a(1) = (   1.006395  -0.000000   0.000000 )  
               a(2) = (  -0.503197   0.871563   0.000000 )  
               a(3) = (   0.000000  -0.000000   1.437605 )  

     reciprocal axes: (cart. coord. in units 2 pi/alat)
               b(1) = (  0.993646  0.573682  0.000000 )  
               b(2) = (  0.000000  1.147364  0.000000 )  
               b(3) = ( -0.000000 -0.000000  0.695602 )  


     PseudoPot. # 1 for H  read from file:
     /home/ilia/espresso/pseudo/H.blyp-vbc.UPF
     MD5 check sum: 64d25ad537c4b939b17faee1147b797b
     Pseudo is Norm-conserving, Zval =  1.0
     Generated by new atomic code, or converted to UPF format
     Using radial grid of  243 points,  0 beta functions with: 

     PseudoPot. # 2 for Ca read from file:
     /home/ilia/espresso/pseudo/Ca.blyp-sp-hgh.UPF
     MD5 check sum: 357a6b692114ea82b84239caae8ecfc0
     Pseudo is Norm-conserving, Zval = 10.0
     Generated in analytical, separable form
     Using radial grid of 1169 points,  5 beta functions with: 
                l(1) =   0
                l(2) =   0
                l(3) =   1
                l(4) =   1
                l(5) =   2

     atomic species   valence    mass     pseudopotential
        H              1.00     1.00700     H ( 1.00)
        Ca            10.00    40.07800     Ca( 1.00)

     24 Sym. Ops., with inversion, found (12 have fractional translation)



   Cartesian axes

     site n.     atom                  positions (alat units)
         1           Ca  tau(   1) = (   0.0000000   0.5810422   0.3594012  )
         2           Ca  tau(   2) = (   0.5031973   0.2905211   1.0782035  )
         3           H   tau(   3) = (   0.0000000   0.5810422   1.0782035  )
         4           H   tau(   4) = (   0.5031973   0.2905211   0.3594012  )
         5           H   tau(   5) = (  -0.0000000  -0.0000000   0.0000000  )
         6           H   tau(   6) = (   0.0000000   0.0000000   0.7188023  )

     number of k points=    36
                       cart. coord. in units 2pi/alat
        k(    1) = (   0.0828038   0.1434204   0.0579668), wk =   0.0370370
        k(    2) = (   0.0828038   0.1434204   0.1739004), wk =   0.0370370
        k(    3) = (   0.0828038   0.1434204   0.2898340), wk =   0.0370370
        k(    4) = (   0.0828038   0.3346477   0.0579668), wk =   0.0740741
        k(    5) = (   0.0828038   0.3346477   0.1739004), wk =   0.0740741
        k(    6) = (   0.0828038   0.3346477   0.2898340), wk =   0.0740741
        k(    7) = (   0.0828038   0.5258750   0.0579668), wk =   0.0740741
        k(    8) = (   0.0828038   0.5258750   0.1739004), wk =   0.0740741
        k(    9) = (   0.0828038   0.5258750   0.2898340), wk =   0.0740741
        k(   10) = (   0.0828038  -0.4302613   0.0579668), wk =   0.0740741
        k(   11) = (   0.0828038  -0.4302613   0.1739004), wk =   0.0740741
        k(   12) = (   0.0828038  -0.4302613   0.2898340), wk =   0.0740741
        k(   13) = (   0.0828038  -0.2390341   0.0579668), wk =   0.0740741
        k(   14) = (   0.0828038  -0.2390341   0.1739004), wk =   0.0740741
        k(   15) = (   0.0828038  -0.2390341   0.2898340), wk =   0.0740741
        k(   16) = (   0.0828038  -0.0478068   0.0579668), wk =   0.0370370
        k(   17) = (   0.0828038  -0.0478068   0.1739004), wk =   0.0370370
        k(   18) = (   0.0828038  -0.0478068   0.2898340), wk =   0.0370370
        k(   19) = (   0.2484115   0.4302613   0.0579668), wk =   0.0370370
        k(   20) = (   0.2484115   0.4302613   0.1739004), wk =   0.0370370
        k(   21) = (   0.2484115   0.4302613   0.2898340), wk =   0.0370370
        k(   22) = (   0.2484115   0.6214886   0.0579668), wk =   0.0740741
        k(   23) = (   0.2484115   0.6214886   0.1739004), wk =   0.0740741
        k(   24) = (   0.2484115   0.6214886   0.2898340), wk =   0.0740741
        k(   25) = (   0.2484115  -0.3346477   0.0579668), wk =   0.0740741
        k(   26) = (   0.2484115  -0.3346477   0.1739004), wk =   0.0740741
        k(   27) = (   0.2484115  -0.3346477   0.2898340), wk =   0.0740741
        k(   28) = (   0.2484115  -0.1434204   0.0579668), wk =   0.0370370
        k(   29) = (   0.2484115  -0.1434204   0.1739004), wk =   0.0370370
        k(   30) = (   0.2484115  -0.1434204   0.2898340), wk =   0.0370370
        k(   31) = (   0.4140192   0.7171022   0.0579668), wk =   0.0370370
        k(   32) = (   0.4140192   0.7171022   0.1739004), wk =   0.0370370
        k(   33) = (   0.4140192   0.7171022   0.2898340), wk =   0.0370370
        k(   34) = (   0.4140192  -0.2390341   0.0579668), wk =   0.0370370
        k(   35) = (   0.4140192  -0.2390341   0.1739004), wk =   0.0370370
        k(   36) = (   0.4140192  -0.2390341   0.2898340), wk =   0.0370370

     Dense  grid:    82025 G-vectors     FFT dimensions: (  54,  54,  72)

     Largest allocated arrays     est. size (Mb)     dimensions
        Kohn-Sham Wavefunctions         1.88 Mb     (  10282,   12)
        NL pseudopotentials             4.08 Mb     (  10282,   26)
        Each V/rho on FFT grid          3.20 Mb     ( 209952)
        Each G-vector array             0.63 Mb     (  82025)
        G-vector shells                 0.03 Mb     (   3576)
     Largest temporary arrays     est. size (Mb)     dimensions
        Auxiliary wavefunctions         7.53 Mb     (  10282,   48)
        Each subspace H/S matrix        0.04 Mb     (  48,  48)
        Each <psi_i|beta_j> matrix      0.00 Mb     (     26,   12)
        Arrays for rho mixing          51.26 Mb     ( 209952,  16)

     Initial potential from superposition of free atoms

     starting charge   23.98928, renormalised to   24.00000
     Starting wfc are   30 randomized atomic wfcs

     Writing output data file CaH2_18GPa-blyp-0000.save

     total cpu time spent up to now is     2697.2 secs

     per-process dynamical memory:    60.2 Mb

     Self-consistent Calculation

     iteration #  1     ecut=   120.00 Ry     beta=0.30
     Davidson diagonalization with overlap
     ethr =  1.00E-06,  avg # of iterations =  8.4

     total cpu time spent up to now is     2768.7 secs

     total energy              =    -151.60105224 Ry
     Harris-Foulkes estimate   =    -151.63590563 Ry
     estimated scf accuracy    <       0.29955054 Ry

     iteration #  2     ecut=   120.00 Ry     beta=0.30
     Davidson diagonalization with overlap
     ethr =  1.25E-03,  avg # of iterations =  1.0

     total cpu time spent up to now is     2792.7 secs

     total energy              =    -151.53626311 Ry
     Harris-Foulkes estimate   =    -151.60272709 Ry
     estimated scf accuracy    <       0.17418961 Ry

     iteration #  3     ecut=   120.00 Ry     beta=0.30
     Davidson diagonalization with overlap
     ethr =  7.26E-04,  avg # of iterations =  3.1

     total cpu time spent up to now is     2823.2 secs

     total energy              =    -151.56300000 Ry
     Harris-Foulkes estimate   =    -151.56341608 Ry
     estimated scf accuracy    <       0.00410701 Ry

     iteration #  4     ecut=   120.00 Ry     beta=0.30
     Davidson diagonalization with overlap
     ethr =  1.71E-05,  avg # of iterations =  4.0

     total cpu time spent up to now is     2856.4 secs

     total energy              =    -151.56491522 Ry
     Harris-Foulkes estimate   =    -151.56503638 Ry
     estimated scf accuracy    <       0.00183586 Ry

     iteration #  5     ecut=   120.00 Ry     beta=0.30
     Davidson diagonalization with overlap
     ethr =  7.65E-06,  avg # of iterations =  3.1

     total cpu time spent up to now is     2890.3 secs

     total energy              =    -151.56524615 Ry
     Harris-Foulkes estimate   =    -151.56529945 Ry
     estimated scf accuracy    <       0.00014204 Ry

     iteration #  6     ecut=   120.00 Ry     beta=0.30
     Davidson diagonalization with overlap
     ethr =  5.92E-07,  avg # of iterations =  3.4

     total cpu time spent up to now is     2925.4 secs

     total energy              =    -151.56529072 Ry
     Harris-Foulkes estimate   =    -151.56529249 Ry
     estimated scf accuracy    <       0.00002158 Ry

     iteration #  7     ecut=   120.00 Ry     beta=0.30
     Davidson diagonalization with overlap
     ethr =  8.99E-08,  avg # of iterations =  3.7

     total cpu time spent up to now is     2960.5 secs

     total energy              =    -151.56529637 Ry
     Harris-Foulkes estimate   =    -151.56529636 Ry
     estimated scf accuracy    <       0.00000040 Ry

     iteration #  8     ecut=   120.00 Ry     beta=0.30
     Davidson diagonalization with overlap
     ethr =  1.67E-09,  avg # of iterations =  4.3

     total cpu time spent up to now is     3004.6 secs

     total energy              =    -151.56529660 Ry
     Harris-Foulkes estimate   =    -151.56529669 Ry
     estimated scf accuracy    <       0.00000024 Ry

     iteration #  9     ecut=   120.00 Ry     beta=0.30
     Davidson diagonalization with overlap
     ethr =  1.00E-09,  avg # of iterations =  2.8

     total cpu time spent up to now is     3034.7 secs

     End of self-consistent calculation

          k = 0.0828 0.1434 0.0580 ( 10237 PWs)   bands (ev):

   -34.8309 -34.7816 -15.4750 -15.1545 -15.1423 -15.1278 -15.0741 -15.0465
     0.3406   2.9429   4.5296   6.1196

          k = 0.0828 0.1434 0.1739 ( 10266 PWs)   bands (ev):

   -34.8244 -34.7883 -15.4386 -15.2109 -15.1289 -15.1166 -15.0723 -15.0573
     0.6069   2.4268   4.9276   6.0788

          k = 0.0828 0.1434 0.2898 ( 10265 PWs)   bands (ev):

   -34.8130 -34.7998 -15.3727 -15.2908 -15.1073 -15.0988 -15.0838 -15.0756
     1.1010   1.7469   5.4394   5.8708

          k = 0.0828 0.3346 0.0580 ( 10245 PWs)   bands (ev):

   -34.8171 -34.7823 -15.4192 -15.2235 -15.2003 -15.1659 -15.1315 -15.0566
     1.2643   3.2999   4.4045   4.6789

          k = 0.0828 0.3346 0.1739 ( 10250 PWs)   bands (ev):

   -34.8125 -34.7870 -15.4124 -15.2754 -15.1836 -15.1478 -15.1100 -15.0698
     1.4959   2.9857   4.4816   4.7388

          k = 0.0828 0.3346 0.2898 ( 10255 PWs)   bands (ev):

   -34.8044 -34.7951 -15.3873 -15.3392 -15.1466 -15.1284 -15.1081 -15.0913
     1.9218   2.4635   4.6455   4.7553

          k = 0.0828 0.5259 0.0580 ( 10227 PWs)   bands (ev):

   -34.8038 -34.7859 -15.3643 -15.2764 -15.2568 -15.1891 -15.1733 -15.0640
     2.5503   3.1627   3.6979   4.3243

          k = 0.0828 0.5259 0.1739 ( 10223 PWs)   bands (ev):

   -34.8013 -34.7882 -15.3980 -15.3273 -15.2171 -15.1583 -15.1451 -15.0785
     2.7238   3.2906   3.6958   4.0992

          k = 0.0828 0.5259 0.2898 ( 10232 PWs)   bands (ev):

   -34.7972 -34.7924 -15.4064 -15.3810 -15.1686 -15.1409 -15.1269 -15.1009
     3.0258   3.3268   3.6881   3.8616

          k = 0.0828-0.4303 0.0580 ( 10237 PWs)   bands (ev):

   -34.8093 -34.7839 -15.3866 -15.2609 -15.2306 -15.1810 -15.1573 -15.0612
     1.8927   3.3995   4.0381   4.3562

          k = 0.0828-0.4303 0.1739 ( 10236 PWs)   bands (ev):

   -34.8059 -34.7873 -15.4022 -15.3084 -15.2058 -15.1572 -15.1297 -15.0753
     2.0979   3.2802   4.0701   4.2958

          k = 0.0828-0.4303 0.2898 ( 10242 PWs)   bands (ev):

   -34.8001 -34.7932 -15.3985 -15.3652 -15.1613 -15.1375 -15.1197 -15.0975
     2.4690   2.9187   4.1727   4.2669

          k = 0.0828-0.2390 0.0580 ( 10253 PWs)   bands (ev):

   -34.8248 -34.7817 -15.4508 -15.1805 -15.1714 -15.1469 -15.1019 -15.0513
     0.7292   3.1187   4.4729   5.3889

          k = 0.0828-0.2390 0.1739 ( 10262 PWs)   bands (ev):

   -34.8191 -34.7875 -15.4261 -15.2391 -15.1549 -15.1328 -15.0898 -15.0634
     0.9814   2.6759   4.7296   5.4020

          k = 0.0828-0.2390 0.2898 ( 10262 PWs)   bands (ev):

   -34.8091 -34.7975 -15.3780 -15.3117 -15.1266 -15.1142 -15.0951 -15.0835
     1.4483   2.0541   5.0682   5.3223

          k = 0.0828-0.0478 0.0580 ( 10233 PWs)   bands (ev):

   -34.8343 -34.7817 -15.4881 -15.1441 -15.1238 -15.1170 -15.0552 -15.0440
     0.1364   2.8371   4.5618   6.6809

          k = 0.0828-0.0478 0.1739 ( 10269 PWs)   bands (ev):

   -34.8274 -34.7889 -15.4459 -15.1966 -15.1132 -15.1073 -15.0606 -15.0538
     0.4099   2.2890   5.0406   6.5846

          k = 0.0828-0.0478 0.2898 ( 10282 PWs)   bands (ev):

   -34.8152 -34.8012 -15.3707 -15.2800 -15.0951 -15.0904 -15.0754 -15.0708
     0.9176   1.5827   5.6704   6.2496

          k = 0.2484 0.4303 0.0580 ( 10235 PWs)   bands (ev):

   -34.8039 -34.7858 -15.3605 -15.2666 -15.2308 -15.2179 -15.1598 -15.0892
     2.2893   3.4434   3.8184   4.3469

          k = 0.2484 0.4303 0.1739 ( 10230 PWs)   bands (ev):

   -34.8014 -34.7882 -15.3850 -15.3227 -15.2121 -15.1758 -15.1241 -15.1057
     2.4772   3.4162   3.9180   4.1968

          k = 0.2484 0.4303 0.2898 ( 10226 PWs)   bands (ev):

   -34.7972 -34.7924 -15.3930 -15.3710 -15.1818 -15.1531 -15.1183 -15.1089
     2.8092   3.1845   4.0426   4.1087

          k = 0.2484 0.6215 0.0580 ( 10223 PWs)   bands (ev):

   -34.7982 -34.7889 -15.3333 -15.2808 -15.2561 -15.2069 -15.1825 -15.0994
     2.8277   3.3071   3.5377   4.3420

          k = 0.2484 0.6215 0.1739 ( 10236 PWs)   bands (ev):

   -34.7970 -34.7901 -15.3715 -15.3370 -15.2310 -15.1633 -15.1410 -15.1155
     2.9852   3.4178   3.6218   4.1424

          k = 0.2484 0.6215 0.2898 ( 10231 PWs)   bands (ev):

   -34.7948 -34.7923 -15.3913 -15.3791 -15.1965 -15.1592 -15.1213 -15.1121
     3.2493   3.4681   3.7364   3.8910

          k = 0.2484-0.3346 0.0580 ( 10226 PWs)   bands (ev):

   -34.8107 -34.7835 -15.3915 -15.2450 -15.2179 -15.1970 -15.1416 -15.0724
     1.7424   3.4015   4.2293   4.3703

          k = 0.2484-0.3346 0.1739 ( 10236 PWs)   bands (ev):

   -34.8070 -34.7871 -15.4000 -15.3008 -15.1921 -15.1723 -15.1148 -15.0867
     1.9548   3.2218   4.2827   4.3516

          k = 0.2484-0.3346 0.2898 ( 10244 PWs)   bands (ev):

   -34.8008 -34.7934 -15.3919 -15.3570 -15.1607 -15.1447 -15.1115 -15.1023
     2.3404   2.8142   4.3586   4.3947

          k = 0.2484-0.1434 0.0580 ( 10246 PWs)   bands (ev):

   -34.8221 -34.7818 -15.4398 -15.2011 -15.1817 -15.1427 -15.1229 -15.0492
     0.9138   3.1887   4.4466   5.1051

          k = 0.2484-0.1434 0.1739 ( 10250 PWs)   bands (ev):

   -34.8167 -34.7872 -15.4214 -15.2525 -15.1704 -15.1303 -15.1037 -15.0618
     1.1589   2.7870   4.6368   5.1373

          k = 0.2484-0.1434 0.2898 ( 10253 PWs)   bands (ev):

   -34.8074 -34.7966 -15.3817 -15.3222 -15.1368 -15.1099 -15.1087 -15.0836
     1.6120   2.1968   4.9055   5.0986

          k = 0.4140 0.7171 0.0580 ( 10220 PWs)   bands (ev):

   -34.8005 -34.7874 -15.3481 -15.2693 -15.2684 -15.1892 -15.1892 -15.0818
     2.8959   3.0184   3.6410   4.3313

          k = 0.4140 0.7171 0.1739 ( 10230 PWs)   bands (ev):

   -34.7988 -34.7892 -15.3857 -15.3321 -15.2239 -15.1607 -15.1483 -15.0955
     3.0403   3.1784   3.6838   4.0997

          k = 0.4140 0.7171 0.2898 ( 10222 PWs)   bands (ev):

   -34.7957 -34.7922 -15.3999 -15.3808 -15.1838 -15.1502 -15.1252 -15.1068
     3.2895   3.3837   3.6862   3.7782

          k = 0.4140-0.2390 0.0580 ( 10233 PWs)   bands (ev):

   -34.8069 -34.7847 -15.3774 -15.2739 -15.2440 -15.1807 -15.1664 -15.0563
     2.1757   3.3418   3.8097   4.3343

          k = 0.4140-0.2390 0.1739 ( 10229 PWs)   bands (ev):

   -34.8039 -34.7876 -15.4031 -15.3190 -15.2131 -15.1518 -15.1414 -15.0712
     2.3677   3.3530   3.8089   4.1863

          k = 0.4140-0.2390 0.2898 ( 10220 PWs)   bands (ev):

   -34.7987 -34.7927 -15.4055 -15.3754 -15.1617 -15.1345 -15.1264 -15.0969
     2.7108   3.1103   3.9094   4.0613

!    total energy              =    -151.56529663 Ry
     Harris-Foulkes estimate   =    -151.56529663 Ry
     estimated scf accuracy    <          5.1E-09 Ry

     The total energy is the sum of the following terms:

     one-electron contribution =     -56.43058373 Ry
     hartree contribution      =      32.56959781 Ry
     xc contribution           =     -23.42929203 Ry
     ewald contribution        =    -104.27501868 Ry

     convergence has been achieved in   9 iterations

     Forces acting on atoms (Ry/au):

     atom    1 type  2   force =     0.00000000    0.00000000    0.00000000
     atom    2 type  2   force =    -0.00000000    0.00000000    0.00000000
     atom    3 type  1   force =     0.00000000    0.00000000    0.00000000
     atom    4 type  1   force =    -0.00000000   -0.00000000   -0.00000000
     atom    5 type  1   force =    -0.00000000   -0.00000000    0.00000000
     atom    6 type  1   force =    -0.00000000    0.00000000    0.00000000

     Total force =     0.000000     Total SCF correction =     0.000000


     entering subroutine stress ...

          total   stress  (Ry/bohr**3)                   (kbar)     P=    3.83
   0.00001351   0.00000000   0.00000000          1.99      0.00      0.00
   0.00000000   0.00001351  -0.00000000          0.00      1.99     -0.00
  -0.00000000   0.00000000   0.00005107         -0.00      0.00      7.51


     Writing output data file CaH2_18GPa-blyp-0000.save

     init_run     :     97.23s CPU     99.13s WALL (       2 calls)
     electrons    :   1840.56s CPU   1884.89s WALL (      10 calls)
     update_pot   :    412.28s CPU    413.74s WALL (       8 calls)
     forces       :    187.03s CPU    189.03s WALL (      10 calls)
     stress       :    467.03s CPU    472.15s WALL (      10 calls)

     Called by init_run:
     wfcinit      :     50.17s CPU     51.41s WALL (       2 calls)
     potinit      :     18.62s CPU     18.76s WALL (       2 calls)

     Called by electrons:
     c_bands      :   1554.33s CPU   1588.82s WALL (      79 calls)
     sum_band     :    241.41s CPU    249.43s WALL (      79 calls)
     v_of_rho     :     21.89s CPU     22.54s WALL (      88 calls)
     mix_rho      :     24.40s CPU     25.41s WALL (      79 calls)

     Called by c_bands:
     init_us_2    :    108.27s CPU    110.75s WALL (    6480 calls)
     cegterg      :   1457.59s CPU   1479.02s WALL (    2844 calls)

     Called by *egterg:
     h_psi        :   1161.86s CPU   1179.10s WALL (   11955 calls)
     g_psi        :      9.55s CPU      9.69s WALL (    9039 calls)
     cdiaghg      :      6.63s CPU      6.73s WALL (   11559 calls)

     Called by h_psi:
     add_vuspsi   :     93.27s CPU     94.54s WALL (   11955 calls)

     General routines
     calbec       :    103.36s CPU    104.91s WALL (   12675 calls)
     fft          :      6.24s CPU      6.34s WALL (    1048 calls)
     ffts         :      8.67s CPU      8.79s WALL (    1428 calls)
     fftw         :    851.36s CPU    863.55s WALL (  239564 calls)
     davcio       :      1.42s CPU     16.12s WALL (    9324 calls)


     PWSCF        : 50m 5.54s CPU    51m 0.43s WALL


   This run was terminated on:   0:39: 6  15Jun2014            

=------------------------------------------------------------------------------=
   JOB DONE.
=------------------------------------------------------------------------------=
