
     Program PWSCF v.5.0.2 (svn rev. 9392) starts on 15Jun2014 at  4:16:33 

     This program is part of the open-source Quantum ESPRESSO suite
     for quantum simulation of materials; please cite
         "P. Giannozzi et al., J. Phys.:Condens. Matter 21 395502 (2009);
          URL http://www.quantum-espresso.org", 
     in publications or presentations arising from this work. More details at
     http://www.quantum-espresso.org/quote.php

     Serial version

     Current dimensions of program PWSCF are:
     Max number of different atomic species (ntypx) = 10
     Max number of k-points (npk) =  40000
     Max angular momentum in pseudopotentials (lmaxx) =  3
     Waiting for input...
     Reading input from standard input

     G-vector sticks info
     --------------------
     sticks:   dense  smooth     PW     G-vecs:    dense   smooth      PW
     Sum        1675    1675    499                70221    70221   10875



     bravais-lattice index     =            4
     lattice parameter (alat)  =       7.1520  a.u.
     unit-cell volume          =     396.1522 (a.u.)^3
     number of atoms/cell      =            6
     number of atomic types    =            2
     number of electrons       =        24.00
     number of Kohn-Sham states=           12
     kinetic-energy cutoff     =     120.0000  Ry
     charge density cutoff     =     480.0000  Ry
     convergence threshold     =      1.0E-06
     mixing beta               =       0.3000
     number of iterations used =           16  local-TF  mixing
     Exchange-correlation      = BLYP ( 1 3 1 3 0)
     EXX-fraction              =        0.00
     nstep                     =           50


     celldm(1)=   7.152000  celldm(2)=   0.000000  celldm(3)=   1.250400
     celldm(4)=   0.000000  celldm(5)=   0.000000  celldm(6)=   0.000000

     crystal axes: (cart. coord. in units of alat)
               a(1) = (   1.000000   0.000000   0.000000 )  
               a(2) = (  -0.500000   0.866025   0.000000 )  
               a(3) = (   0.000000   0.000000   1.250400 )  

     reciprocal axes: (cart. coord. in units 2 pi/alat)
               b(1) = (  1.000000  0.577350 -0.000000 )  
               b(2) = (  0.000000  1.154701  0.000000 )  
               b(3) = (  0.000000 -0.000000  0.799744 )  


     PseudoPot. # 1 for H  read from file:
     /home/ilia/espresso/pseudo/H.blyp-vbc.UPF
     MD5 check sum: 64d25ad537c4b939b17faee1147b797b
     Pseudo is Norm-conserving, Zval =  1.0
     Generated by new atomic code, or converted to UPF format
     Using radial grid of  243 points,  0 beta functions with: 

     PseudoPot. # 2 for Ca read from file:
     /home/ilia/espresso/pseudo/Ca.blyp-sp-hgh.UPF
     MD5 check sum: 357a6b692114ea82b84239caae8ecfc0
     Pseudo is Norm-conserving, Zval = 10.0
     Generated in analytical, separable form
     Using radial grid of 1169 points,  5 beta functions with: 
                l(1) =   0
                l(2) =   0
                l(3) =   1
                l(4) =   1
                l(5) =   2

     atomic species   valence    mass     pseudopotential
        H              1.00     1.00700     H ( 1.00)
        Ca            10.00    40.07800     Ca( 1.00)

     24 Sym. Ops., with inversion, found (12 have fractional translation)



   Cartesian axes

     site n.     atom                  positions (alat units)
         1           Ca  tau(   1) = (   0.0000000   0.5773503   0.3126000  )
         2           Ca  tau(   2) = (   0.5000000   0.2886751   0.9378000  )
         3           H   tau(   3) = (   0.0000000   0.5773503   0.9378000  )
         4           H   tau(   4) = (   0.5000000   0.2886751   0.3126000  )
         5           H   tau(   5) = (   0.0000000   0.0000000   0.0000000  )
         6           H   tau(   6) = (   0.0000000   0.0000000   0.6252000  )

     number of k points=    36
                       cart. coord. in units 2pi/alat
        k(    1) = (   0.0833333   0.1443376   0.0666453), wk =   0.0370370
        k(    2) = (   0.0833333   0.1443376   0.1999360), wk =   0.0370370
        k(    3) = (   0.0833333   0.1443376   0.3332267), wk =   0.0370370
        k(    4) = (   0.0833333   0.3367877   0.0666453), wk =   0.0740741
        k(    5) = (   0.0833333   0.3367877   0.1999360), wk =   0.0740741
        k(    6) = (   0.0833333   0.3367877   0.3332267), wk =   0.0740741
        k(    7) = (   0.0833333   0.5292377   0.0666453), wk =   0.0740741
        k(    8) = (   0.0833333   0.5292377   0.1999360), wk =   0.0740741
        k(    9) = (   0.0833333   0.5292377   0.3332267), wk =   0.0740741
        k(   10) = (   0.0833333  -0.4330127   0.0666453), wk =   0.0740741
        k(   11) = (   0.0833333  -0.4330127   0.1999360), wk =   0.0740741
        k(   12) = (   0.0833333  -0.4330127   0.3332267), wk =   0.0740741
        k(   13) = (   0.0833333  -0.2405626   0.0666453), wk =   0.0740741
        k(   14) = (   0.0833333  -0.2405626   0.1999360), wk =   0.0740741
        k(   15) = (   0.0833333  -0.2405626   0.3332267), wk =   0.0740741
        k(   16) = (   0.0833333  -0.0481125   0.0666453), wk =   0.0370370
        k(   17) = (   0.0833333  -0.0481125   0.1999360), wk =   0.0370370
        k(   18) = (   0.0833333  -0.0481125   0.3332267), wk =   0.0370370
        k(   19) = (   0.2500000   0.4330127   0.0666453), wk =   0.0370370
        k(   20) = (   0.2500000   0.4330127   0.1999360), wk =   0.0370370
        k(   21) = (   0.2500000   0.4330127   0.3332267), wk =   0.0370370
        k(   22) = (   0.2500000   0.6254628   0.0666453), wk =   0.0740741
        k(   23) = (   0.2500000   0.6254628   0.1999360), wk =   0.0740741
        k(   24) = (   0.2500000   0.6254628   0.3332267), wk =   0.0740741
        k(   25) = (   0.2500000  -0.3367877   0.0666453), wk =   0.0740741
        k(   26) = (   0.2500000  -0.3367877   0.1999360), wk =   0.0740741
        k(   27) = (   0.2500000  -0.3367877   0.3332267), wk =   0.0740741
        k(   28) = (   0.2500000  -0.1443376   0.0666453), wk =   0.0370370
        k(   29) = (   0.2500000  -0.1443376   0.1999360), wk =   0.0370370
        k(   30) = (   0.2500000  -0.1443376   0.3332267), wk =   0.0370370
        k(   31) = (   0.4166667   0.7216878   0.0666453), wk =   0.0370370
        k(   32) = (   0.4166667   0.7216878   0.1999360), wk =   0.0370370
        k(   33) = (   0.4166667   0.7216878   0.3332267), wk =   0.0370370
        k(   34) = (   0.4166667  -0.2405626   0.0666453), wk =   0.0370370
        k(   35) = (   0.4166667  -0.2405626   0.1999360), wk =   0.0370370
        k(   36) = (   0.4166667  -0.2405626   0.3332267), wk =   0.0370370

     Dense  grid:    70221 G-vectors     FFT dimensions: (  50,  50,  64)

     Largest allocated arrays     est. size (Mb)     dimensions
        Kohn-Sham Wavefunctions         1.62 Mb     (   8823,   12)
        NL pseudopotentials             3.50 Mb     (   8823,   26)
        Each V/rho on FFT grid          2.44 Mb     ( 160000)
        Each G-vector array             0.54 Mb     (  70221)
        G-vector shells                 0.54 Mb     (  70221)
     Largest temporary arrays     est. size (Mb)     dimensions
        Auxiliary wavefunctions         6.46 Mb     (   8823,   48)
        Each subspace H/S matrix        0.04 Mb     (  48,  48)
        Each <psi_i|beta_j> matrix      0.00 Mb     (     26,   12)
        Arrays for rho mixing          39.06 Mb     ( 160000,  16)

     Initial potential from superposition of free atoms

     starting charge   23.98928, renormalised to   24.00000
     Starting wfc are   30 randomized atomic wfcs

     total cpu time spent up to now is       64.3 secs

     per-process dynamical memory:    38.9 Mb

     Self-consistent Calculation

     iteration #  1     ecut=   120.00 Ry     beta=0.30
     Davidson diagonalization with overlap
     ethr =  1.00E-02,  avg # of iterations =  2.0

     Threshold (ethr) on eigenvalues was too large:
     Diagonalizing with lowered threshold

     Davidson diagonalization with overlap
     ethr =  9.46E-04,  avg # of iterations =  1.5

     total cpu time spent up to now is      106.2 secs

     total energy              =    -151.57225362 Ry
     Harris-Foulkes estimate   =    -151.59791152 Ry
     estimated scf accuracy    <       0.24273938 Ry

     iteration #  2     ecut=   120.00 Ry     beta=0.30
     Davidson diagonalization with overlap
     ethr =  1.01E-03,  avg # of iterations =  1.0

     total cpu time spent up to now is      125.6 secs

     total energy              =    -151.50927203 Ry
     Harris-Foulkes estimate   =    -151.57351341 Ry
     estimated scf accuracy    <       0.15476846 Ry

     iteration #  3     ecut=   120.00 Ry     beta=0.30
     Davidson diagonalization with overlap
     ethr =  6.45E-04,  avg # of iterations =  2.6

     total cpu time spent up to now is      149.1 secs

     total energy              =    -151.53284486 Ry
     Harris-Foulkes estimate   =    -151.53644127 Ry
     estimated scf accuracy    <       0.01167930 Ry

     iteration #  4     ecut=   120.00 Ry     beta=0.30
     Davidson diagonalization with overlap
     ethr =  4.87E-05,  avg # of iterations =  3.0

     total cpu time spent up to now is      172.5 secs

     total energy              =    -151.53455051 Ry
     Harris-Foulkes estimate   =    -151.53679175 Ry
     estimated scf accuracy    <       0.00612978 Ry

     iteration #  5     ecut=   120.00 Ry     beta=0.30
     Davidson diagonalization with overlap
     ethr =  2.55E-05,  avg # of iterations =  3.6

     total cpu time spent up to now is      196.8 secs

     total energy              =    -151.53572127 Ry
     Harris-Foulkes estimate   =    -151.53577040 Ry
     estimated scf accuracy    <       0.00012997 Ry

     iteration #  6     ecut=   120.00 Ry     beta=0.30
     Davidson diagonalization with overlap
     ethr =  5.42E-07,  avg # of iterations =  4.1

     total cpu time spent up to now is      225.3 secs

     total energy              =    -151.53579169 Ry
     Harris-Foulkes estimate   =    -151.53579071 Ry
     estimated scf accuracy    <       0.00000918 Ry

     iteration #  7     ecut=   120.00 Ry     beta=0.30
     Davidson diagonalization with overlap
     ethr =  3.83E-08,  avg # of iterations =  3.4

     total cpu time spent up to now is      255.8 secs

     total energy              =    -151.53579453 Ry
     Harris-Foulkes estimate   =    -151.53579447 Ry
     estimated scf accuracy    <       0.00000160 Ry

     iteration #  8     ecut=   120.00 Ry     beta=0.30
     Davidson diagonalization with overlap
     ethr =  6.65E-09,  avg # of iterations =  2.1

     total cpu time spent up to now is      278.3 secs

     End of self-consistent calculation

          k = 0.0833 0.1443 0.0666 (  8810 PWs)   bands (ev):

   -33.1257 -32.9918 -13.8893 -13.4885 -13.4828 -13.3405 -13.2703 -13.2692
     1.2957   4.0372   6.7097   7.1126

          k = 0.0833 0.1443 0.1999 (  8821 PWs)   bands (ev):

   -33.1078 -33.0098 -13.8391 -13.4690 -13.4465 -13.4417 -13.2986 -13.2679
     1.6738   3.7687   6.7165   7.2435

          k = 0.0833 0.1443 0.3332 (  8822 PWs)   bands (ev):

   -33.0768 -33.0408 -13.7397 -13.6035 -13.4037 -13.3792 -13.3476 -13.3113
     2.3432   3.1315   7.0039   7.2799

          k = 0.0833 0.3368 0.0666 (  8795 PWs)   bands (ev):

   -33.0984 -33.0039 -13.8034 -13.5745 -13.5268 -13.4480 -13.3285 -13.2686
     2.2578   4.3245   5.5995   6.3661

          k = 0.0833 0.3368 0.1999 (  8792 PWs)   bands (ev):

   -33.0855 -33.0165 -13.8312 -13.6124 -13.4953 -13.4502 -13.3055 -13.2694
     2.5895   4.2747   5.7693   6.0779

          k = 0.0833 0.3368 0.3332 (  8800 PWs)   bands (ev):

   -33.0635 -33.0383 -13.8140 -13.7343 -13.4380 -13.3678 -13.3464 -13.2779
     3.1753   3.8455   5.9541   6.0143

          k = 0.0833 0.5292 0.0666 (  8793 PWs)   bands (ev):

   -33.0698 -33.0215 -13.7376 -13.6132 -13.5419 -13.5402 -13.3974 -13.2689
     3.5564   4.1612   4.5989   6.1385

          k = 0.0833 0.5292 0.1999 (  8782 PWs)   bands (ev):

   -33.0630 -33.0276 -13.8347 -13.6993 -13.5347 -13.4314 -13.3162 -13.2922
     3.8234   4.4132   4.7510   5.7032

          k = 0.0833 0.5292 0.3332 (  8761 PWs)   bands (ev):

   -33.0515 -33.0385 -13.8646 -13.8157 -13.4631 -13.3824 -13.3215 -13.2705
     4.2757   4.6750   4.8755   5.1872

          k = 0.0833-0.4330 0.0666 (  8788 PWs)   bands (ev):

   -33.0820 -33.0132 -13.7585 -13.6116 -13.5379 -13.4997 -13.3685 -13.2687
     2.8981   4.3952   4.9560   6.2187

          k = 0.0833-0.4330 0.1999 (  8788 PWs)   bands (ev):

   -33.0726 -33.0222 -13.8321 -13.6693 -13.5201 -13.4412 -13.3108 -13.2825
     3.1987   4.5012   5.1342   5.8304

          k = 0.0833-0.4330 0.3332 (  8779 PWs)   bands (ev):

   -33.0564 -33.0380 -13.8464 -13.7867 -13.4539 -13.3770 -13.3311 -13.2718
     3.7222   4.2880   5.3846   5.5659

          k = 0.0833-0.2406 0.0666 (  8796 PWs)   bands (ev):

   -33.1138 -32.9966 -13.8516 -13.5250 -13.5074 -13.3927 -13.2925 -13.2692
     1.7033   4.1826   6.3354   6.5469

          k = 0.0833-0.2406 0.1999 (  8800 PWs)   bands (ev):

   -33.0980 -33.0123 -13.8342 -13.5394 -13.4675 -13.4516 -13.3014 -13.2627
     2.0617   4.0012   6.3932   6.4924

          k = 0.0833-0.2406 0.3332 (  8820 PWs)   bands (ev):

   -33.0708 -33.0395 -13.7751 -13.6683 -13.4195 -13.3646 -13.3563 -13.2914
     2.6967   3.4394   6.4976   6.6117

          k = 0.0833-0.0481 0.0666 (  8823 PWs)   bands (ev):

   -33.1321 -32.9896 -13.9097 -13.4706 -13.4662 -13.3040 -13.2716 -13.2614
     1.0800   3.9471   6.8056   7.7276

          k = 0.0833-0.0481 0.1999 (  8809 PWs)   bands (ev):

   -33.1129 -33.0087 -13.8428 -13.4405 -13.4403 -13.4059 -13.2977 -13.2810
     1.4686   3.6372   6.9229   7.8473

          k = 0.0833-0.0481 0.3332 (  8822 PWs)   bands (ev):

   -33.0800 -33.0417 -13.7183 -13.5597 -13.3952 -13.3875 -13.3430 -13.3289
     2.1558   2.9661   7.3618   7.8028

          k = 0.2500 0.4330 0.0666 (  8799 PWs)   bands (ev):

   -33.0699 -33.0214 -13.7132 -13.6500 -13.5285 -13.5245 -13.3927 -13.2917
     3.2935   4.4185   4.7392   6.1403

          k = 0.2500 0.4330 0.1999 (  8784 PWs)   bands (ev):

   -33.0631 -33.0276 -13.8048 -13.7044 -13.5748 -13.3982 -13.3367 -13.2912
     3.5772   4.5868   4.9531   5.7617

          k = 0.2500 0.4330 0.3332 (  8784 PWs)   bands (ev):

   -33.0516 -33.0386 -13.8418 -13.8037 -13.5056 -13.4172 -13.2952 -13.2562
     4.0624   4.5417   5.2382   5.4163

          k = 0.2500 0.6255 0.0666 (  8807 PWs)   bands (ev):

   -33.0567 -33.0317 -13.6848 -13.6532 -13.5767 -13.5007 -13.4267 -13.2986
     3.8178   4.2782   4.4741   6.0858

          k = 0.2500 0.6255 0.1999 (  8800 PWs)   bands (ev):

   -33.0531 -33.0348 -13.7880 -13.7270 -13.6068 -13.3706 -13.3480 -13.3087
     4.0702   4.5236   4.6870   5.7274

          k = 0.2500 0.6255 0.3332 (  8778 PWs)   bands (ev):

   -33.0469 -33.0402 -13.8432 -13.8210 -13.5273 -13.4323 -13.2781 -13.2557
     4.4910   4.7801   4.9447   5.2339

          k = 0.2500-0.3368 0.0666 (  8789 PWs)   bands (ev):

   -33.0848 -33.0115 -13.7611 -13.6122 -13.5370 -13.4830 -13.3577 -13.2798
     2.7460   4.3977   5.1461   6.2412

          k = 0.2500-0.3368 0.1999 (  8785 PWs)   bands (ev):

   -33.0748 -33.0211 -13.8217 -13.6635 -13.5321 -13.4275 -13.3214 -13.2763
     3.0553   4.4628   5.3397   5.8812

          k = 0.2500-0.3368 0.3332 (  8777 PWs)   bands (ev):

   -33.0575 -33.0379 -13.8324 -13.7734 -13.4714 -13.3926 -13.3201 -13.2640
     3.5962   4.1897   5.5797   5.6857

          k = 0.2500-0.1443 0.0666 (  8796 PWs)   bands (ev):

   -33.1084 -32.9990 -13.8349 -13.5482 -13.5072 -13.4180 -13.3060 -13.2650
     1.8954   4.2384   6.0410   6.4798

          k = 0.2500-0.1443 0.1999 (  8799 PWs)   bands (ev):

   -33.0936 -33.0137 -13.8341 -13.5650 -13.4752 -13.4572 -13.2979 -13.2667
     2.2443   4.1015   6.1826   6.2893

          k = 0.2500-0.1443 0.3332 (  8812 PWs)   bands (ev):

   -33.0683 -33.0390 -13.7914 -13.6946 -13.4194 -13.3635 -13.3545 -13.2895
     2.8623   3.5812   6.2906   6.3639

          k = 0.4167 0.7217 0.0666 (  8798 PWs)   bands (ev):

   -33.0623 -33.0271 -13.7147 -13.6284 -13.5632 -13.5211 -13.4133 -13.2846
     3.8998   3.9994   4.5564   6.1045

          k = 0.4167 0.7217 0.1999 (  8787 PWs)   bands (ev):

   -33.0573 -33.0315 -13.8146 -13.7123 -13.5772 -13.3960 -13.3365 -13.2974
     4.1261   4.2882   4.7404   5.7050

          k = 0.4167 0.7217 0.3332 (  8761 PWs)   bands (ev):

   -33.0488 -33.0393 -13.8561 -13.8196 -13.5001 -13.4111 -13.2960 -13.2599
     4.5366   4.6745   4.8960   5.1369

          k = 0.4167-0.2406 0.0666 (  8798 PWs)   bands (ev):

   -33.0767 -33.0167 -13.7517 -13.6091 -13.5440 -13.5201 -13.3824 -13.2625
     3.1829   4.3449   4.7127   6.1804

          k = 0.4167-0.2406 0.1999 (  8788 PWs)   bands (ev):

   -33.0685 -33.0244 -13.8398 -13.6838 -13.5069 -13.4551 -13.3009 -13.2933
     3.4687   4.5342   4.8634   5.7537

          k = 0.4167-0.2406 0.3332 (  8773 PWs)   bands (ev):

   -33.0543 -33.0381 -13.8608 -13.8040 -13.4423 -13.3669 -13.3381 -13.2778
     3.9609   4.4700   5.1105   5.3710

!    total energy              =    -151.53579454 Ry
     Harris-Foulkes estimate   =    -151.53579465 Ry
     estimated scf accuracy    <       0.00000035 Ry

     The total energy is the sum of the following terms:

     one-electron contribution =     -48.47245937 Ry
     hartree contribution      =      30.10103158 Ry
     xc contribution           =     -23.62192882 Ry
     ewald contribution        =    -109.54243792 Ry

     convergence has been achieved in   8 iterations

     Forces acting on atoms (Ry/au):

     atom    1 type  2   force =     0.00000000   -0.00000000    0.00000000
     atom    2 type  2   force =     0.00000000    0.00000000    0.00000000
     atom    3 type  1   force =     0.00000000   -0.00000000   -0.00000000
     atom    4 type  1   force =     0.00000000    0.00000000    0.00000000
     atom    5 type  1   force =    -0.00000000    0.00000000   -0.00000000
     atom    6 type  1   force =     0.00000000    0.00000000   -0.00000000

     Total force =     0.000000     Total SCF correction =     0.000000


     entering subroutine stress ...

          total   stress  (Ry/bohr**3)                   (kbar)     P=   85.94
   0.00036574  -0.00000000   0.00000000         53.80     -0.00      0.00
  -0.00000000   0.00036574  -0.00000000         -0.00     53.80     -0.00
  -0.00000000   0.00000000   0.00102106         -0.00      0.00    150.20


     BFGS Geometry Optimization

     number of scf cycles    =   1
     number of bfgs steps    =   0

     enthalpy new            =    -148.8428059069 Ry

     new trust radius        =       0.5000000000 bohr
     new conv_thr            =       0.0000010000 Ry

     new unit-cell volume =    268.71642 a.u.^3 (    39.81966 Ang^3 )

CELL_PARAMETERS (alat=  7.15200000)
   0.874394413   0.000000000  -0.000000000
  -0.437197207   0.757247775   0.000000000
   0.000000000  -0.000000000   1.109344185

ATOMIC_POSITIONS (crystal)
Ca       0.333333333   0.666666667   0.250000000
Ca       0.666666667   0.333333333   0.750000000
H        0.333333333   0.666666667   0.750000000
H        0.666666667   0.333333333   0.250000000
H       -0.000000000   0.000000000  -0.000000000
H        0.000000000   0.000000000   0.500000000



     Writing output data file CaH2_18GPa-blyp-1000.save
     NEW-OLD atomic charge density approx. for the potential
     NEW k-points:
        k(    1) = (   0.0953041   0.1650715   0.0751195), wk =   0.0370370
        k(    2) = (   0.0953041   0.1650715   0.2253584), wk =   0.0370370
        k(    3) = (   0.0953041   0.1650715   0.3755973), wk =   0.0370370
        k(    4) = (   0.0953041   0.3851668   0.0751195), wk =   0.0740741
        k(    5) = (   0.0953041   0.3851668   0.2253584), wk =   0.0740741
        k(    6) = (   0.0953041   0.3851668   0.3755973), wk =   0.0740741
        k(    7) = (   0.0953041   0.6052620   0.0751195), wk =   0.0740741
        k(    8) = (   0.0953041   0.6052620   0.2253584), wk =   0.0740741
        k(    9) = (   0.0953041   0.6052620   0.3755973), wk =   0.0740741
        k(   10) = (   0.0953041  -0.4952144   0.0751195), wk =   0.0740741
        k(   11) = (   0.0953041  -0.4952144   0.2253584), wk =   0.0740741
        k(   12) = (   0.0953041  -0.4952144   0.3755973), wk =   0.0740741
        k(   13) = (   0.0953041  -0.2751191   0.0751195), wk =   0.0740741
        k(   14) = (   0.0953041  -0.2751191   0.2253584), wk =   0.0740741
        k(   15) = (   0.0953041  -0.2751191   0.3755973), wk =   0.0740741
        k(   16) = (   0.0953041  -0.0550238   0.0751195), wk =   0.0370370
        k(   17) = (   0.0953041  -0.0550238   0.2253584), wk =   0.0370370
        k(   18) = (   0.0953041  -0.0550238   0.3755973), wk =   0.0370370
        k(   19) = (   0.2859122   0.4952144   0.0751195), wk =   0.0370370
        k(   20) = (   0.2859122   0.4952144   0.2253584), wk =   0.0370370
        k(   21) = (   0.2859122   0.4952144   0.3755973), wk =   0.0370370
        k(   22) = (   0.2859122   0.7153097   0.0751195), wk =   0.0740741
        k(   23) = (   0.2859122   0.7153097   0.2253584), wk =   0.0740741
        k(   24) = (   0.2859122   0.7153097   0.3755973), wk =   0.0740741
        k(   25) = (   0.2859122  -0.3851668   0.0751195), wk =   0.0740741
        k(   26) = (   0.2859122  -0.3851668   0.2253584), wk =   0.0740741
        k(   27) = (   0.2859122  -0.3851668   0.3755973), wk =   0.0740741
        k(   28) = (   0.2859122  -0.1650715   0.0751195), wk =   0.0370370
        k(   29) = (   0.2859122  -0.1650715   0.2253584), wk =   0.0370370
        k(   30) = (   0.2859122  -0.1650715   0.3755973), wk =   0.0370370
        k(   31) = (   0.4765203   0.8253573   0.0751195), wk =   0.0370370
        k(   32) = (   0.4765203   0.8253573   0.2253584), wk =   0.0370370
        k(   33) = (   0.4765203   0.8253573   0.3755973), wk =   0.0370370
        k(   34) = (   0.4765203  -0.2751191   0.0751195), wk =   0.0370370
        k(   35) = (   0.4765203  -0.2751191   0.2253584), wk =   0.0370370
        k(   36) = (   0.4765203  -0.2751191   0.3755973), wk =   0.0370370

     negative rho (up, down):  0.139E-04 0.000E+00
     extrapolated charge   12.62335, renormalised to   24.00000

     total cpu time spent up to now is      404.8 secs

     per-process dynamical memory:    52.7 Mb

     Self-consistent Calculation

     iteration #  1     ecut=   120.00 Ry     beta=0.30
     Davidson diagonalization with overlap
     c_bands:  3 eigenvalues not converged
     c_bands:  2 eigenvalues not converged
     c_bands:  3 eigenvalues not converged
     c_bands:  2 eigenvalues not converged
     c_bands:  3 eigenvalues not converged
     c_bands:  3 eigenvalues not converged
     c_bands:  3 eigenvalues not converged
     c_bands:  3 eigenvalues not converged
     c_bands:  4 eigenvalues not converged
     c_bands:  3 eigenvalues not converged
     c_bands:  2 eigenvalues not converged
     c_bands:  4 eigenvalues not converged
     c_bands:  3 eigenvalues not converged
     c_bands:  3 eigenvalues not converged
     c_bands:  3 eigenvalues not converged
     c_bands:  1 eigenvalues not converged
     c_bands:  1 eigenvalues not converged
     c_bands:  4 eigenvalues not converged
     c_bands:  1 eigenvalues not converged
     c_bands:  2 eigenvalues not converged
     c_bands:  4 eigenvalues not converged
     c_bands:  3 eigenvalues not converged
     c_bands:  3 eigenvalues not converged
     c_bands:  4 eigenvalues not converged
     c_bands:  2 eigenvalues not converged
     c_bands:  3 eigenvalues not converged
     c_bands:  2 eigenvalues not converged
     ethr =  1.00E-06,  avg # of iterations = 19.4

     negative rho (up, down):  0.276E-03 0.000E+00

     total cpu time spent up to now is      500.9 secs

     total energy              =    -143.50241958 Ry
     Harris-Foulkes estimate   =    -162.93485297 Ry
     estimated scf accuracy    <      25.45218230 Ry

     iteration #  2     ecut=   120.00 Ry     beta=0.30
     Davidson diagonalization with overlap
     ethr =  1.00E-02,  avg # of iterations =  4.7

     total cpu time spent up to now is      542.9 secs

     total energy              =      20.69608800 Ry
     Harris-Foulkes estimate   =    -276.53996441 Ry
     estimated scf accuracy    <      34.62487626 Ry

     iteration #  3     ecut=   120.00 Ry     beta=0.30
     Davidson diagonalization with overlap
     ethr =  1.00E-02,  avg # of iterations =  7.1

     total cpu time spent up to now is      574.5 secs

     total energy              =    -151.09860929 Ry
     Harris-Foulkes estimate   =    -151.07036669 Ry
     estimated scf accuracy    <       0.20475604 Ry

     iteration #  4     ecut=   120.00 Ry     beta=0.30
     Davidson diagonalization with overlap
     ethr =  8.53E-04,  avg # of iterations =  2.4

     total cpu time spent up to now is      595.6 secs

     total energy              =    -151.20473787 Ry
     Harris-Foulkes estimate   =    -151.10954890 Ry
     estimated scf accuracy    <       0.14741614 Ry

     iteration #  5     ecut=   120.00 Ry     beta=0.30
     Davidson diagonalization with overlap
     ethr =  6.14E-04,  avg # of iterations =  1.0

     total cpu time spent up to now is      615.4 secs

     total energy              =    -151.21492396 Ry
     Harris-Foulkes estimate   =    -151.21315265 Ry
     estimated scf accuracy    <       0.10777279 Ry

     iteration #  6     ecut=   120.00 Ry     beta=0.30
     Davidson diagonalization with overlap
     ethr =  4.49E-04,  avg # of iterations =  1.0

     total cpu time spent up to now is      635.1 secs

     total energy              =    -151.21474470 Ry
     Harris-Foulkes estimate   =    -151.21558430 Ry
     estimated scf accuracy    <       0.09026536 Ry

     iteration #  7     ecut=   120.00 Ry     beta=0.30
     Davidson diagonalization with overlap
     ethr =  3.76E-04,  avg # of iterations =  1.0

     total cpu time spent up to now is      654.8 secs

     total energy              =    -151.21654705 Ry
     Harris-Foulkes estimate   =    -151.21503008 Ry
     estimated scf accuracy    <       0.07094860 Ry

     iteration #  8     ecut=   120.00 Ry     beta=0.30
     Davidson diagonalization with overlap
     ethr =  2.96E-04,  avg # of iterations =  1.0

     total cpu time spent up to now is      674.4 secs

     total energy              =    -151.21935937 Ry
     Harris-Foulkes estimate   =    -151.21676403 Ry
     estimated scf accuracy    <       0.05185167 Ry

     iteration #  9     ecut=   120.00 Ry     beta=0.30
     Davidson diagonalization with overlap
     ethr =  2.16E-04,  avg # of iterations =  1.0

     total cpu time spent up to now is      694.2 secs

     total energy              =    -151.22900550 Ry
     Harris-Foulkes estimate   =    -151.21949935 Ry
     estimated scf accuracy    <       0.03864338 Ry

     iteration # 10     ecut=   120.00 Ry     beta=0.30
     Davidson diagonalization with overlap
     ethr =  1.61E-04,  avg # of iterations =  1.0

     total cpu time spent up to now is      713.8 secs

     total energy              =    -151.23008852 Ry
     Harris-Foulkes estimate   =    -151.22968414 Ry
     estimated scf accuracy    <       0.01418685 Ry

     iteration # 11     ecut=   120.00 Ry     beta=0.30
     Davidson diagonalization with overlap
     ethr =  5.91E-05,  avg # of iterations =  1.0

     total cpu time spent up to now is      733.8 secs

     total energy              =    -151.23435710 Ry
     Harris-Foulkes estimate   =    -151.23015859 Ry
     estimated scf accuracy    <       0.01374428 Ry

     iteration # 12     ecut=   120.00 Ry     beta=0.30
     Davidson diagonalization with overlap
     ethr =  5.73E-05,  avg # of iterations =  1.0

     total cpu time spent up to now is      753.5 secs

     total energy              =    -151.25426464 Ry
     Harris-Foulkes estimate   =    -151.23442706 Ry
     estimated scf accuracy    <       0.00989933 Ry

     iteration # 13     ecut=   120.00 Ry     beta=0.30
     Davidson diagonalization with overlap
     ethr =  4.12E-05,  avg # of iterations =  1.0

     total cpu time spent up to now is      773.3 secs

     total energy              =    -151.25820230 Ry
     Harris-Foulkes estimate   =    -151.25463347 Ry
     estimated scf accuracy    <       0.00184948 Ry

     iteration # 14     ecut=   120.00 Ry     beta=0.30
     Davidson diagonalization with overlap
     ethr =  7.71E-06,  avg # of iterations =  1.9

     total cpu time spent up to now is      793.9 secs

     total energy              =    -151.25967743 Ry
     Harris-Foulkes estimate   =    -151.25827665 Ry
     estimated scf accuracy    <       0.00099318 Ry

     iteration # 15     ecut=   120.00 Ry     beta=0.30
     Davidson diagonalization with overlap
     ethr =  4.14E-06,  avg # of iterations =  1.6

     total cpu time spent up to now is      814.3 secs

     total energy              =    -151.25957282 Ry
     Harris-Foulkes estimate   =    -151.25970136 Ry
     estimated scf accuracy    <       0.00069676 Ry

     iteration # 16     ecut=   120.00 Ry     beta=0.30
     Davidson diagonalization with overlap
     ethr =  2.90E-06,  avg # of iterations =  1.0

     total cpu time spent up to now is      834.2 secs

     total energy              =    -151.26153983 Ry
     Harris-Foulkes estimate   =    -151.25957842 Ry
     estimated scf accuracy    <       0.00071206 Ry

     iteration # 17     ecut=   120.00 Ry     beta=0.30
     Davidson diagonalization with overlap
     ethr =  2.90E-06,  avg # of iterations =  1.0

     total cpu time spent up to now is      854.1 secs

     total energy              =    -151.26166218 Ry
     Harris-Foulkes estimate   =    -151.26155095 Ry
     estimated scf accuracy    <       0.00043081 Ry

     iteration # 18     ecut=   120.00 Ry     beta=0.30
     Davidson diagonalization with overlap
     ethr =  1.80E-06,  avg # of iterations =  1.0

     total cpu time spent up to now is      873.9 secs

     total energy              =    -151.25854254 Ry
     Harris-Foulkes estimate   =    -151.26166497 Ry
     estimated scf accuracy    <       0.00041769 Ry

     iteration # 19     ecut=   120.00 Ry     beta=0.30
     Davidson diagonalization with overlap
     ethr =  1.74E-06,  avg # of iterations =  1.0

     total cpu time spent up to now is      893.7 secs

     total energy              =    -151.26397256 Ry
     Harris-Foulkes estimate   =    -151.25855329 Ry
     estimated scf accuracy    <       0.00086617 Ry

     iteration # 20     ecut=   120.00 Ry     beta=0.30
     Davidson diagonalization with overlap
     ethr =  1.74E-06,  avg # of iterations =  2.1

     total cpu time spent up to now is      922.9 secs

     total energy              =    -151.26413567 Ry
     Harris-Foulkes estimate   =    -151.26413366 Ry
     estimated scf accuracy    <       0.00004277 Ry

     iteration # 21     ecut=   120.00 Ry     beta=0.30
     Davidson diagonalization with overlap
     ethr =  1.78E-07,  avg # of iterations =  1.1

     total cpu time spent up to now is      943.3 secs

     total energy              =    -151.26411271 Ry
     Harris-Foulkes estimate   =    -151.26413617 Ry
     estimated scf accuracy    <       0.00004322 Ry

     iteration # 22     ecut=   120.00 Ry     beta=0.30
     Davidson diagonalization with overlap
     ethr =  1.78E-07,  avg # of iterations =  1.0

     total cpu time spent up to now is      963.3 secs

     total energy              =    -151.26409484 Ry
     Harris-Foulkes estimate   =    -151.26411384 Ry
     estimated scf accuracy    <       0.00001931 Ry

     iteration # 23     ecut=   120.00 Ry     beta=0.30
     Davidson diagonalization with overlap
     ethr =  8.05E-08,  avg # of iterations =  3.1

     total cpu time spent up to now is      994.0 secs

     total energy              =    -151.26410209 Ry
     Harris-Foulkes estimate   =    -151.26410223 Ry
     estimated scf accuracy    <       0.00000537 Ry

     iteration # 24     ecut=   120.00 Ry     beta=0.30
     Davidson diagonalization with overlap
     ethr =  2.24E-08,  avg # of iterations =  1.0

     total cpu time spent up to now is     1013.9 secs

     total energy              =    -151.26410141 Ry
     Harris-Foulkes estimate   =    -151.26410218 Ry
     estimated scf accuracy    <       0.00000681 Ry

     iteration # 25     ecut=   120.00 Ry     beta=0.30
     Davidson diagonalization with overlap
     ethr =  2.24E-08,  avg # of iterations =  1.1

     total cpu time spent up to now is     1034.0 secs

     total energy              =    -151.26410104 Ry
     Harris-Foulkes estimate   =    -151.26410165 Ry
     estimated scf accuracy    <       0.00000366 Ry

     iteration # 26     ecut=   120.00 Ry     beta=0.30
     Davidson diagonalization with overlap
     ethr =  1.52E-08,  avg # of iterations =  2.0

     total cpu time spent up to now is     1056.5 secs

     total energy              =    -151.26409998 Ry
     Harris-Foulkes estimate   =    -151.26410130 Ry
     estimated scf accuracy    <       0.00000546 Ry

     iteration # 27     ecut=   120.00 Ry     beta=0.30
     Davidson diagonalization with overlap
     ethr =  1.52E-08,  avg # of iterations =  1.0

     total cpu time spent up to now is     1076.5 secs

     total energy              =    -151.26410168 Ry
     Harris-Foulkes estimate   =    -151.26410006 Ry
     estimated scf accuracy    <       0.00000580 Ry

     iteration # 28     ecut=   120.00 Ry     beta=0.30
     Davidson diagonalization with overlap
     ethr =  1.52E-08,  avg # of iterations =  4.0

     total cpu time spent up to now is     1110.0 secs

     total energy              =    -151.26409656 Ry
     Harris-Foulkes estimate   =    -151.26410512 Ry
     estimated scf accuracy    <       0.00002190 Ry

     iteration # 29     ecut=   120.00 Ry     beta=0.30
     Davidson diagonalization with overlap
     ethr =  1.52E-08,  avg # of iterations =  4.0

     total cpu time spent up to now is     1142.2 secs

     total energy              =    -151.26411545 Ry
     Harris-Foulkes estimate   =    -151.26409847 Ry
     estimated scf accuracy    <       0.00000426 Ry

     iteration # 30     ecut=   120.00 Ry     beta=0.30
     Davidson diagonalization with overlap
     ethr =  1.52E-08,  avg # of iterations =  4.1

     total cpu time spent up to now is     1177.2 secs

     total energy              =    -151.26412160 Ry
     Harris-Foulkes estimate   =    -151.26412694 Ry
     estimated scf accuracy    <       0.00005794 Ry

     iteration # 31     ecut=   120.00 Ry     beta=0.30
     Davidson diagonalization with overlap
     ethr =  1.52E-08,  avg # of iterations =  1.1

     total cpu time spent up to now is     1197.2 secs

     total energy              =    -151.26409914 Ry
     Harris-Foulkes estimate   =    -151.26412176 Ry
     estimated scf accuracy    <       0.00004695 Ry

     iteration # 32     ecut=   120.00 Ry     beta=0.30
     Davidson diagonalization with overlap
     ethr =  1.52E-08,  avg # of iterations =  4.0

     total cpu time spent up to now is     1231.9 secs

     total energy              =    -151.26410435 Ry
     Harris-Foulkes estimate   =    -151.26410410 Ry
     estimated scf accuracy    <       0.00000585 Ry

     iteration # 33     ecut=   120.00 Ry     beta=0.30
     Davidson diagonalization with overlap
     ethr =  1.52E-08,  avg # of iterations =  2.9

     total cpu time spent up to now is     1255.8 secs

     total energy              =    -151.26410377 Ry
     Harris-Foulkes estimate   =    -151.26410485 Ry
     estimated scf accuracy    <       0.00000117 Ry

     iteration # 34     ecut=   120.00 Ry     beta=0.30
     Davidson diagonalization with overlap
     ethr =  4.86E-09,  avg # of iterations =  2.1

     total cpu time spent up to now is     1278.8 secs

     total energy              =    -151.26410366 Ry
     Harris-Foulkes estimate   =    -151.26410387 Ry
     estimated scf accuracy    <       0.00000229 Ry

     iteration # 35     ecut=   120.00 Ry     beta=0.30
     Davidson diagonalization with overlap
     ethr =  4.86E-09,  avg # of iterations =  1.8

     total cpu time spent up to now is     1300.6 secs

     total energy              =    -151.26410308 Ry
     Harris-Foulkes estimate   =    -151.26410371 Ry
     estimated scf accuracy    <       0.00000112 Ry

     iteration # 36     ecut=   120.00 Ry     beta=0.30
     Davidson diagonalization with overlap
     ethr =  4.66E-09,  avg # of iterations =  1.0

     total cpu time spent up to now is     1320.0 secs

     End of self-consistent calculation

          k = 0.0953 0.1651 0.0751 (  8810 PWs)   bands (ev):

   -27.7581 -27.2035  -9.0723  -8.0472  -8.0094  -7.6382  -7.4209  -7.2712
     5.1063   7.6221  11.5431  11.5473

          k = 0.0953 0.1651 0.2254 (  8821 PWs)   bands (ev):

   -27.6858 -27.2798  -8.9503  -7.9876  -7.9151  -7.8697  -7.4996  -7.3304
     5.6359   7.7185  11.1640  11.7191

          k = 0.0953 0.1651 0.3756 (  8822 PWs)   bands (ev):

   -27.5591 -27.4105  -8.6966  -8.3343  -7.7857  -7.7048  -7.6343  -7.4882
     6.5036   7.3617  11.2564  11.6944

          k = 0.0953 0.3852 0.0751 (  8795 PWs)   bands (ev):

   -27.6327 -27.2407  -8.8401  -8.4097  -8.1864  -7.9766  -7.4676  -7.4249
     6.5297   8.2422   9.6400  10.5881

          k = 0.0953 0.3852 0.2254 (  8792 PWs)   bands (ev):

   -27.5800 -27.2929  -8.9912  -8.4775  -8.0647  -7.9407  -7.5350  -7.3380
     6.9112   8.5153   9.8865  10.1222

          k = 0.0953 0.3852 0.3756 (  8800 PWs)   bands (ev):

   -27.4888 -27.3837  -8.9839  -8.7879  -7.9148  -7.7162  -7.6052  -7.3810
     7.5735   8.3080   9.9986  10.1836

          k = 0.0953 0.6053 0.0751 (  8793 PWs)   bands (ev):

   -27.5033 -27.3048  -8.8668  -8.3965  -8.2627  -8.2087  -7.7131  -7.4352
     7.7326   8.4462   8.8512  10.0035

          k = 0.0953 0.6053 0.2254 (  8782 PWs)   bands (ev):

   -27.4749 -27.3295  -9.1084  -8.7171  -8.2081  -7.8654  -7.5709  -7.4287
     7.9577   8.6787   9.1903   9.8434

          k = 0.0953 0.6053 0.3756 (  8761 PWs)   bands (ev):

   -27.4269 -27.3737  -9.1891  -9.0497  -8.0093  -7.7756  -7.5283  -7.3630
     8.3044   8.6427   9.6881   9.8521

          k = 0.0953-0.4952 0.0751 (  8788 PWs)   bands (ev):

   -27.5587 -27.2734  -8.8052  -8.4836  -8.2207  -8.1304  -7.6040  -7.4312
     7.2721   8.4180   9.0843  10.2046

          k = 0.0953-0.4952 0.2254 (  8788 PWs)   bands (ev):

   -27.5193 -27.3103  -9.0538  -8.6426  -8.1553  -7.9048  -7.5555  -7.3874
     7.5586   8.7486   9.3416   9.8796

          k = 0.0953-0.4952 0.3756 (  8779 PWs)   bands (ev):

   -27.4518 -27.3752  -9.1134  -8.9592  -7.9749  -7.7538  -7.5579  -7.3650
     8.0583   8.6289   9.7030   9.8699

          k = 0.0953-0.2751 0.0751 (  8796 PWs)   bands (ev):

   -27.7036 -27.2172  -8.9642  -8.2067  -8.1120  -7.8073  -7.4232  -7.3476
     5.7447   7.9348  10.4942  11.0807

          k = 0.0953-0.2751 0.2254 (  8800 PWs)   bands (ev):

   -27.6394 -27.2834  -8.9575  -8.2367  -7.9628  -7.9431  -7.5153  -7.3125
     6.2098   8.1067  10.5906  10.7244

          k = 0.0953-0.2751 0.3756 (  8820 PWs)   bands (ev):

   -27.5275 -27.3972  -8.8328  -8.5637  -7.8451  -7.6736  -7.6569  -7.4216
     6.9936   7.8070  10.5617  10.8393

          k = 0.0953-0.0550 0.0751 (  8823 PWs)   bands (ev):

   -27.7877 -27.1975  -9.1318  -7.9688  -7.9427  -7.5126  -7.4222  -7.2410
     4.7498   7.4294  11.8326  12.4818

          k = 0.0953-0.0550 0.2254 (  8809 PWs)   bands (ev):

   -27.7111 -27.2791  -8.9529  -7.8834  -7.8741  -7.7436  -7.4930  -7.3837
     5.3159   7.4895  11.5714  12.6287

          k = 0.0953-0.0550 0.3756 (  8822 PWs)   bands (ev):

   -27.5768 -27.4187  -8.6138  -8.1715  -7.7544  -7.7295  -7.6149  -7.5542
     6.2282   7.1078  11.8186  12.4648

          k = 0.2859 0.4952 0.0751 (  8799 PWs)   bands (ev):

   -27.5052 -27.3029  -8.6704  -8.6309  -8.1947  -8.1800  -7.6960  -7.5328
     7.7824   8.6651   8.7998   9.9296

          k = 0.2859 0.4952 0.2254 (  8784 PWs)   bands (ev):

   -27.4763 -27.3281  -8.9507  -8.7596  -8.3562  -7.7715  -7.6714  -7.4137
     8.0377   9.0753   9.1831   9.5993

          k = 0.2859 0.4952 0.3756 (  8784 PWs)   bands (ev):

   -27.4275 -27.3732  -9.0815  -8.9954  -8.1878  -7.9262  -7.4387  -7.3122
     8.4862   9.0456   9.6106   9.6502

          k = 0.2859 0.7153 0.0751 (  8807 PWs)   bands (ev):

   -27.4471 -27.3434  -8.7497  -8.5164  -8.3229  -8.0896  -7.8213  -7.5641
     8.1102   8.6917   8.7639   9.7634

          k = 0.2859 0.7153 0.2254 (  8800 PWs)   bands (ev):

   -27.4310 -27.3550  -8.9317  -8.7758  -8.4978  -7.7313  -7.6662  -7.4750
     8.3176   9.0879   9.1735   9.5802

          k = 0.2859 0.7153 0.3756 (  8778 PWs)   bands (ev):

   -27.4047 -27.3768  -9.0907  -9.0327  -8.2807  -7.9918  -7.3840  -7.3120
     8.6832   9.1050   9.6889   9.7063

          k = 0.2859-0.3852 0.0751 (  8789 PWs)   bands (ev):

   -27.5719 -27.2666  -8.7426  -8.5308  -8.2516  -8.0541  -7.5706  -7.4782
     7.1729   8.4750   9.1440  10.2302

          k = 0.2859-0.3852 0.2254 (  8785 PWs)   bands (ev):

   -27.5299 -27.3063  -8.9850  -8.6429  -8.1940  -7.8654  -7.6055  -7.3628
     7.4939   8.8329   9.4548   9.8022

          k = 0.2859-0.3852 0.3756 (  8777 PWs)   bands (ev):

   -27.4580 -27.3761  -9.0498  -8.9107  -8.0476  -7.8207  -7.5187  -7.3361
     8.0569   8.7203   9.7114   9.8366

          k = 0.2859-0.1651 0.0751 (  8796 PWs)   bands (ev):

   -27.6788 -27.2247  -8.9195  -8.3128  -8.0839  -7.9116  -7.4066  -7.3898
     6.0214   8.0447  10.1522  10.9010

          k = 0.2859-0.1651 0.2254 (  8799 PWs)   bands (ev):

   -27.6185 -27.2861  -8.9746  -8.3200  -7.9966  -7.9622  -7.5009  -7.3266
     6.4552   8.2510  10.3421  10.4503

          k = 0.2859-0.1651 0.3756 (  8812 PWs)   bands (ev):

   -27.5137 -27.3920  -8.8981  -8.6554  -7.8429  -7.6615  -7.6609  -7.4184
     7.1951   7.9812  10.3319  10.5678

          k = 0.4765 0.8254 0.0751 (  8798 PWs)   bands (ev):

   -27.4710 -27.3260  -8.8228  -8.4297  -8.3146  -8.1503  -7.7749  -7.5027
     7.9817   8.5696   8.7792   9.8604

          k = 0.4765 0.8254 0.2254 (  8787 PWs)   bands (ev):

   -27.4495 -27.3432  -9.0424  -8.7353  -8.3741  -7.7518  -7.6614  -7.4441
     8.1934   8.8467   9.1720   9.7241

          k = 0.4765 0.8254 0.3756 (  8761 PWs)   bands (ev):

   -27.4137 -27.3748  -9.1506  -9.0444  -8.1624  -7.8977  -7.4422  -7.3265
     8.5283   8.8628   9.6886   9.7867

          k = 0.4765-0.2751 0.0751 (  8798 PWs)   bands (ev):

   -27.5345 -27.2865  -8.8586  -8.4258  -8.2135  -8.2069  -7.6536  -7.4072
     7.4679   8.3901   8.9718  10.1308

          k = 0.4765-0.2751 0.2254 (  8788 PWs)   bands (ev):

   -27.4998 -27.3181  -9.1091  -8.6807  -8.1053  -7.9478  -7.5204  -7.4217
     7.7148   8.6637   9.2462   9.9005

          k = 0.4765-0.2751 0.3756 (  8773 PWs)   bands (ev):

   -27.4406 -27.3741  -9.1744  -9.0189  -7.9257  -7.7117  -7.5860  -7.3885
     8.1278   8.5697   9.6944   9.8807

!    total energy              =    -151.26410255 Ry
     Harris-Foulkes estimate   =    -151.26410312 Ry
     estimated scf accuracy    <       0.00000061 Ry

     The total energy is the sum of the following terms:

     one-electron contribution =     -26.02950657 Ry
     hartree contribution      =      23.82960429 Ry
     xc contribution           =     -24.35291608 Ry
     ewald contribution        =    -124.71128419 Ry

     convergence has been achieved in  36 iterations

     Forces acting on atoms (Ry/au):

     atom    1 type  2   force =    -0.00000000   -0.00000000   -0.00000000
     atom    2 type  2   force =     0.00000000    0.00000000   -0.00000000
     atom    3 type  1   force =    -0.00000000   -0.00000000   -0.00000000
     atom    4 type  1   force =     0.00000000    0.00000000    0.00000000
     atom    5 type  1   force =     0.00000000   -0.00000000    0.00000000
     atom    6 type  1   force =     0.00000000   -0.00000000    0.00000000

     Total force =     0.000000     Total SCF correction =     0.000000


     entering subroutine stress ...

          total   stress  (Ry/bohr**3)                   (kbar)     P=  697.03
   0.00473235   0.00000000   0.00000000        696.15      0.00      0.00
   0.00000000   0.00473235  -0.00000000          0.00    696.15     -0.00
   0.00000000   0.00000000   0.00475033          0.00      0.00    698.80


     number of scf cycles    =   2
     number of bfgs steps    =   1

     enthalpy old            =    -148.8428059069 Ry
     enthalpy new            =    -149.4374051345 Ry

     CASE: enthalpy_new < enthalpy_old

     new trust radius        =       0.1565554235 bohr
     new conv_thr            =       0.0000000100 Ry

     new unit-cell volume =    232.20090 a.u.^3 (    34.40862 Ang^3 )

CELL_PARAMETERS (alat=  7.15200000)
   0.832640384   0.000000000  -0.000000000
  -0.416320192   0.721087724   0.000000000
   0.000000000  -0.000000000   1.057148022

ATOMIC_POSITIONS (crystal)
Ca       0.333333333   0.666666667   0.250000000
Ca       0.666666667   0.333333333   0.750000000
H        0.333333333   0.666666667   0.750000000
H        0.666666667   0.333333333   0.250000000
H       -0.000000000  -0.000000000   0.000000000
H        0.000000000   0.000000000   0.500000000



     Writing output data file CaH2_18GPa-blyp-1000.save
     NEW-OLD atomic charge density approx. for the potential
     NEW k-points:
        k(    1) = (   0.1000832   0.1733492   0.0788284), wk =   0.0370370
        k(    2) = (   0.1000832   0.1733492   0.2364853), wk =   0.0370370
        k(    3) = (   0.1000832   0.1733492   0.3941422), wk =   0.0370370
        k(    4) = (   0.1000832   0.4044815   0.0788284), wk =   0.0740741
        k(    5) = (   0.1000832   0.4044815   0.2364853), wk =   0.0740741
        k(    6) = (   0.1000832   0.4044815   0.3941422), wk =   0.0740741
        k(    7) = (   0.1000832   0.6356138   0.0788284), wk =   0.0740741
        k(    8) = (   0.1000832   0.6356138   0.2364853), wk =   0.0740741
        k(    9) = (   0.1000832   0.6356138   0.3941422), wk =   0.0740741
        k(   10) = (   0.1000832  -0.5200477   0.0788284), wk =   0.0740741
        k(   11) = (   0.1000832  -0.5200477   0.2364853), wk =   0.0740741
        k(   12) = (   0.1000832  -0.5200477   0.3941422), wk =   0.0740741
        k(   13) = (   0.1000832  -0.2889154   0.0788284), wk =   0.0740741
        k(   14) = (   0.1000832  -0.2889154   0.2364853), wk =   0.0740741
        k(   15) = (   0.1000832  -0.2889154   0.3941422), wk =   0.0740741
        k(   16) = (   0.1000832  -0.0577831   0.0788284), wk =   0.0370370
        k(   17) = (   0.1000832  -0.0577831   0.2364853), wk =   0.0370370
        k(   18) = (   0.1000832  -0.0577831   0.3941422), wk =   0.0370370
        k(   19) = (   0.3002497   0.5200477   0.0788284), wk =   0.0370370
        k(   20) = (   0.3002497   0.5200477   0.2364853), wk =   0.0370370
        k(   21) = (   0.3002497   0.5200477   0.3941422), wk =   0.0370370
        k(   22) = (   0.3002497   0.7511800   0.0788284), wk =   0.0740741
        k(   23) = (   0.3002497   0.7511800   0.2364853), wk =   0.0740741
        k(   24) = (   0.3002497   0.7511800   0.3941422), wk =   0.0740741
        k(   25) = (   0.3002497  -0.4044815   0.0788284), wk =   0.0740741
        k(   26) = (   0.3002497  -0.4044815   0.2364853), wk =   0.0740741
        k(   27) = (   0.3002497  -0.4044815   0.3941422), wk =   0.0740741
        k(   28) = (   0.3002497  -0.1733492   0.0788284), wk =   0.0370370
        k(   29) = (   0.3002497  -0.1733492   0.2364853), wk =   0.0370370
        k(   30) = (   0.3002497  -0.1733492   0.3941422), wk =   0.0370370
        k(   31) = (   0.5004161   0.8667461   0.0788284), wk =   0.0370370
        k(   32) = (   0.5004161   0.8667461   0.2364853), wk =   0.0370370
        k(   33) = (   0.5004161   0.8667461   0.3941422), wk =   0.0370370
        k(   34) = (   0.5004161  -0.2889154   0.0788284), wk =   0.0370370
        k(   35) = (   0.5004161  -0.2889154   0.2364853), wk =   0.0370370
        k(   36) = (   0.5004161  -0.2889154   0.3941422), wk =   0.0370370
     extrapolated charge   20.22749, renormalised to   24.00000

     total cpu time spent up to now is     1447.6 secs

     per-process dynamical memory:    52.7 Mb

     Self-consistent Calculation

     iteration #  1     ecut=   120.00 Ry     beta=0.30
     Davidson diagonalization with overlap
     ethr =  1.00E-06,  avg # of iterations = 10.7

     total cpu time spent up to now is     1510.6 secs

     total energy              =    -150.29528267 Ry
     Harris-Foulkes estimate   =    -152.73174291 Ry
     estimated scf accuracy    <       0.88728752 Ry

     iteration #  2     ecut=   120.00 Ry     beta=0.30
     Davidson diagonalization with overlap
     ethr =  3.70E-03,  avg # of iterations =  3.1

     total cpu time spent up to now is     1542.6 secs

     total energy              =    -150.99658456 Ry
     Harris-Foulkes estimate   =    -150.97469815 Ry
     estimated scf accuracy    <       0.00640022 Ry

     iteration #  3     ecut=   120.00 Ry     beta=0.30
     Davidson diagonalization with overlap
     ethr =  2.67E-05,  avg # of iterations =  3.1

     total cpu time spent up to now is     1566.1 secs

     total energy              =    -151.03853084 Ry
     Harris-Foulkes estimate   =    -150.99768752 Ry
     estimated scf accuracy    <       0.00399066 Ry

     iteration #  4     ecut=   120.00 Ry     beta=0.30
     Davidson diagonalization with overlap
     ethr =  1.66E-05,  avg # of iterations =  2.2

     total cpu time spent up to now is     1588.9 secs

     total energy              =    -151.03581395 Ry
     Harris-Foulkes estimate   =    -151.03897172 Ry
     estimated scf accuracy    <       0.00038222 Ry

     iteration #  5     ecut=   120.00 Ry     beta=0.30
     Davidson diagonalization with overlap
     ethr =  1.59E-06,  avg # of iterations =  3.4

     total cpu time spent up to now is     1620.6 secs

     total energy              =    -151.03885361 Ry
     Harris-Foulkes estimate   =    -151.03599001 Ry
     estimated scf accuracy    <       0.00005513 Ry

     iteration #  6     ecut=   120.00 Ry     beta=0.30
     Davidson diagonalization with overlap
     ethr =  2.30E-07,  avg # of iterations =  1.6

     total cpu time spent up to now is     1640.9 secs

     total energy              =    -151.03901232 Ry
     Harris-Foulkes estimate   =    -151.03885636 Ry
     estimated scf accuracy    <       0.00002404 Ry

     iteration #  7     ecut=   120.00 Ry     beta=0.30
     Davidson diagonalization with overlap
     ethr =  1.00E-07,  avg # of iterations =  2.9

     total cpu time spent up to now is     1667.7 secs

     total energy              =    -151.03903470 Ry
     Harris-Foulkes estimate   =    -151.03901679 Ry
     estimated scf accuracy    <       0.00000034 Ry

     iteration #  8     ecut=   120.00 Ry     beta=0.30
     Davidson diagonalization with overlap
     ethr =  1.43E-09,  avg # of iterations =  3.8

     total cpu time spent up to now is     1701.6 secs

     total energy              =    -151.03903865 Ry
     Harris-Foulkes estimate   =    -151.03903492 Ry
     estimated scf accuracy    <       0.00000004 Ry

     iteration #  9     ecut=   120.00 Ry     beta=0.30
     Davidson diagonalization with overlap
     ethr =  1.63E-10,  avg # of iterations =  2.1

     total cpu time spent up to now is     1729.0 secs

     total energy              =    -151.03903902 Ry
     Harris-Foulkes estimate   =    -151.03903866 Ry
     estimated scf accuracy    <       0.00000001 Ry

     iteration # 10     ecut=   120.00 Ry     beta=0.30
     Davidson diagonalization with overlap
     ethr =  5.35E-11,  avg # of iterations =  2.7

     total cpu time spent up to now is     1756.6 secs

     End of self-consistent calculation

          k = 0.1001 0.1733 0.0788 (  8810 PWs)   bands (ev):

   -25.5272 -24.6189  -7.1110  -5.6937  -5.6296  -5.1188  -4.7880  -4.5272
     7.2357   9.3315  13.5766  13.9745

          k = 0.1001 0.1733 0.2365 (  8821 PWs)   bands (ev):

   -25.4114 -24.7468  -6.9451  -5.6143  -5.4969  -5.4237  -4.9007  -4.6281
     7.8308   9.6517  13.3506  13.7851

          k = 0.1001 0.1733 0.3941 (  8822 PWs)   bands (ev):

   -25.2067 -24.9636  -6.5965  -6.0955  -5.3069  -5.1859  -5.0928  -4.8658
     8.7661   9.5818  13.2285  13.7276

          k = 0.1001 0.4045 0.0788 (  8795 PWs)   bands (ev):

   -25.3175 -24.6731  -6.7999  -6.2602  -5.9077  -5.6103  -4.8232  -4.7916
     8.8303  10.1414  11.6090  12.6521

          k = 0.1001 0.4045 0.2365 (  8792 PWs)   bands (ev):

   -25.2316 -24.7596  -7.0401  -6.3476  -5.7173  -5.5383  -4.9587  -4.6417
     9.1865  10.5980  11.8469  12.1947

          k = 0.1001 0.4045 0.3941 (  8800 PWs)   bands (ev):

   -25.0824 -24.9096  -7.0407  -6.7731  -5.5078  -5.2224  -5.0420  -4.7091
     9.8223  10.5626  11.9595  12.3103

          k = 0.1001 0.6356 0.0788 (  8793 PWs)   bands (ev):

   -25.0994 -24.7753  -6.9371  -6.1891  -6.0324  -5.9199  -5.1843  -4.8143
     9.4286  10.7028  11.3008  11.9136

          k = 0.1001 0.6356 0.2365 (  8782 PWs)   bands (ev):

   -25.0522 -24.8146  -7.2502  -6.6887  -5.9345  -5.4216  -5.0146  -4.7788
     9.7346  10.6505  11.6390  12.1830

          k = 0.1001 0.6356 0.3941 (  8761 PWs)   bands (ev):

   -24.9729 -24.8859  -7.3571  -7.1589  -5.6538  -5.3163  -4.9317  -4.6847
    10.1228  10.4469  12.2483  12.4951

          k = 0.1001-0.5200 0.0788 (  8788 PWs)   bands (ev):

   -25.1930 -24.7244  -6.8155  -6.3282  -5.9567  -5.8323  -5.0208  -4.8072
     9.3550  10.4817  11.2587  12.1565

          k = 0.1001-0.5200 0.2365 (  8788 PWs)   bands (ev):

   -25.1280 -24.7846  -7.1559  -6.5839  -5.8549  -5.4822  -4.9912  -4.7162
     9.6244  10.8146  11.4528  12.1125

          k = 0.1001-0.5200 0.3941 (  8779 PWs)   bands (ev):

   -25.0168 -24.8910  -7.2405  -7.0259  -5.6008  -5.2820  -4.9741  -4.6871
    10.0801  10.6069  11.9992  12.3048

          k = 0.1001-0.2889 0.0788 (  8796 PWs)   bands (ev):

   -25.4361 -24.6382  -6.9611  -5.9498  -5.7931  -5.3650  -4.7926  -4.6407
     7.9911   9.7388  12.4373  13.3194

          k = 0.1001-0.2889 0.2365 (  8800 PWs)   bands (ev):

   -25.3326 -24.7485  -6.9691  -5.9924  -5.5614  -5.5429  -4.9266  -4.6024
     8.4809  10.1259  12.6310  12.7335

          k = 0.1001-0.2889 0.3941 (  8820 PWs)   bands (ev):

   -25.1509 -24.9371  -6.8075  -6.4397  -5.3995  -5.1539  -5.1177  -4.7674
     9.2948  10.0940  12.4553  12.8427

          k = 0.1001-0.0578 0.0788 (  8823 PWs)   bands (ev):

   -25.5764 -24.6109  -7.1941  -5.5676  -5.5225  -4.9292  -4.7892  -4.4817
     6.7979   9.0772  14.3862  14.6487

          k = 0.1001-0.0578 0.2365 (  8809 PWs)   bands (ev):

   -25.4543 -24.7481  -6.9428  -5.4451  -5.4264  -5.2466  -4.8895  -4.7084
     7.4540   9.3645  13.8859  14.8105

          k = 0.1001-0.0578 0.3941 (  8822 PWs)   bands (ev):

   -25.2378 -24.9795  -6.4678  -5.8479  -5.2584  -5.2215  -5.0618  -4.9663
     8.4531   9.2767  13.9019  14.5909

          k = 0.3002 0.5200 0.0788 (  8799 PWs)   bands (ev):

   -25.1038 -24.7709  -6.6573  -6.5336  -5.9070  -5.9051  -5.1561  -4.9698
    10.0563  10.7387  10.9240  11.7370

          k = 0.3002 0.5200 0.2365 (  8784 PWs)   bands (ev):

   -25.0555 -24.8114  -6.9972  -6.7624  -6.1654  -5.2896  -5.1762  -4.7543
    10.2448  11.2029  11.4295  11.5544

          k = 0.3002 0.5200 0.3941 (  8784 PWs)   bands (ev):

   -24.9743 -24.8849  -7.1879  -7.0738  -5.9402  -5.5603  -4.7939  -4.6060
    10.6051  11.0613  11.9550  12.0342

          k = 0.3002 0.7512 0.0788 (  8807 PWs)   bands (ev):

   -25.0068 -24.8365  -6.7726  -6.3830  -6.1181  -5.7413  -5.3425  -5.0199
    10.1593  10.9756  10.9966  11.5138

          k = 0.3002 0.7512 0.2365 (  8800 PWs)   bands (ev):

   -24.9791 -24.8542  -6.9843  -6.7659  -6.3883  -5.2726  -5.1308  -4.8461
    10.3797  11.2070  11.4795  11.6952

          k = 0.3002 0.7512 0.3941 (  8778 PWs)   bands (ev):

   -24.9345 -24.8888  -7.2035  -7.1224  -6.0882  -5.6660  -4.7130  -4.6060
    10.7209  11.0597  12.1567  12.2225

          k = 0.3002-0.4045 0.0788 (  8789 PWs)   bands (ev):

   -25.2155 -24.7132  -6.6844  -6.4345  -6.0060  -5.7183  -4.9713  -4.8816
     9.5077  10.4677  11.1341  12.1555

          k = 0.3002-0.4045 0.2365 (  8785 PWs)   bands (ev):

   -25.1465 -24.7784  -7.0411  -6.5918  -5.9158  -5.4253  -5.0729  -4.6784
     9.7738  10.9817  11.4598  11.8216

          k = 0.3002-0.4045 0.3941 (  8777 PWs)   bands (ev):

   -25.0279 -24.8931  -7.1405  -6.9527  -5.7180  -5.3904  -4.9127  -4.6416
    10.2651  10.9064  11.8008  12.0661

          k = 0.3002-0.1733 0.0788 (  8796 PWs)   bands (ev):

   -25.3946 -24.6491  -6.9015  -6.1169  -5.7351  -5.5328  -4.7661  -4.7030
     8.2870   9.8776  12.1113  13.0796

          k = 0.3002-0.1733 0.2365 (  8799 PWs)   bands (ev):

   -25.2971 -24.7513  -7.0033  -6.1153  -5.6121  -5.5722  -4.9032  -4.6245
     8.7247  10.2883  12.3182  12.5241

          k = 0.3002-0.1733 0.3941 (  8812 PWs)   bands (ev):

   -25.1264 -24.9266  -6.9091  -6.5769  -5.3944  -5.1351  -5.1253  -4.7649
     9.4739  10.2563  12.2462  12.6175

          k = 0.5004 0.8667 0.0788 (  8798 PWs)   bands (ev):

   -25.0458 -24.8090  -6.8773  -6.2394  -6.1176  -5.8296  -5.2756  -4.9218
     9.7800  10.8677  11.1705  11.6882

          k = 0.5004 0.8667 0.2365 (  8787 PWs)   bands (ev):

   -25.0096 -24.8360  -7.1545  -6.7079  -6.1937  -5.2536  -5.1602  -4.8016
    10.0668  10.8797  11.5806  11.9841

          k = 0.5004 0.8667 0.3941 (  8761 PWs)   bands (ev):

   -24.9499 -24.8863  -7.2978  -7.1455  -5.8980  -5.5132  -4.8005  -4.6281
    10.4316  10.7303  12.2236  12.3939

          k = 0.5004-0.2889 0.0788 (  8798 PWs)   bands (ev):

   -25.1518 -24.7458  -6.9147  -6.2295  -5.9672  -5.9171  -5.0952  -4.7695
     9.2808  10.5595  11.3328  12.0883

          k = 0.5004-0.2889 0.2365 (  8788 PWs)   bands (ev):

   -25.0945 -24.7968  -7.2462  -6.6386  -5.7745  -5.5471  -4.9357  -4.7674
     9.5719  10.6313  11.5873  12.2390

          k = 0.5004-0.2889 0.3941 (  8773 PWs)   bands (ev):

   -24.9970 -24.8880  -7.3345  -7.1153  -5.5201  -5.2135  -5.0207  -4.7247
     9.9890  10.4012  12.1751  12.4700

!    total energy              =    -151.03903918 Ry
     Harris-Foulkes estimate   =    -151.03903902 Ry
     estimated scf accuracy    <          6.0E-10 Ry

     The total energy is the sum of the following terms:

     one-electron contribution =     -16.93832022 Ry
     hartree contribution      =      21.52100729 Ry
     xc contribution           =     -24.68677517 Ry
     ewald contribution        =    -130.93495109 Ry

     convergence has been achieved in  10 iterations

     Forces acting on atoms (Ry/au):

     atom    1 type  2   force =    -0.00000000   -0.00000000    0.00000000
     atom    2 type  2   force =     0.00000000    0.00000000    0.00000000
     atom    3 type  1   force =     0.00000000   -0.00000000   -0.00000000
     atom    4 type  1   force =    -0.00000000    0.00000000    0.00000000
     atom    5 type  1   force =     0.00000000    0.00000000   -0.00000000
     atom    6 type  1   force =    -0.00000000    0.00000000   -0.00000000

     Total force =     0.000000     Total SCF correction =     0.000000


     entering subroutine stress ...

          total   stress  (Ry/bohr**3)                   (kbar)     P= 1157.45
   0.00804678  -0.00000000  -0.00000000       1183.72     -0.00     -0.00
  -0.00000000   0.00804678  -0.00000000         -0.00   1183.72     -0.00
  -0.00000000  -0.00000000   0.00751092         -0.00     -0.00   1104.89


     number of scf cycles    =   3
     number of bfgs steps    =   2

     enthalpy old            =    -149.4374051345 Ry
     enthalpy new            =    -149.4605693089 Ry

     CASE: enthalpy_new < enthalpy_old

     new trust radius        =       0.0557131742 bohr
     new conv_thr            =       0.0000000100 Ry

     new unit-cell volume =    243.32735 a.u.^3 (    36.05739 Ang^3 )

CELL_PARAMETERS (alat=  7.15200000)
   0.847861743  -0.000000000  -0.000000000
  -0.423930871   0.734269808  -0.000000000
   0.000000000  -0.000000000   1.068384807

ATOMIC_POSITIONS (crystal)
Ca       0.333333333   0.666666667   0.250000000
Ca       0.666666667   0.333333333   0.750000000
H        0.333333333   0.666666667   0.750000000
H        0.666666667   0.333333333   0.250000000
H       -0.000000000  -0.000000000   0.000000000
H        0.000000000   0.000000000   0.500000000



     Writing output data file CaH2_18GPa-blyp-1000.save
     NEW-OLD atomic charge density approx. for the potential
     NEW k-points:
        k(    1) = (   0.0982865   0.1702372   0.0779994), wk =   0.0370370
        k(    2) = (   0.0982865   0.1702372   0.2339981), wk =   0.0370370
        k(    3) = (   0.0982865   0.1702372   0.3899968), wk =   0.0370370
        k(    4) = (   0.0982865   0.3972200   0.0779994), wk =   0.0740741
        k(    5) = (   0.0982865   0.3972200   0.2339981), wk =   0.0740741
        k(    6) = (   0.0982865   0.3972200   0.3899968), wk =   0.0740741
        k(    7) = (   0.0982865   0.6242029   0.0779994), wk =   0.0740741
        k(    8) = (   0.0982865   0.6242029   0.2339981), wk =   0.0740741
        k(    9) = (   0.0982865   0.6242029   0.3899968), wk =   0.0740741
        k(   10) = (   0.0982865  -0.5107115   0.0779994), wk =   0.0740741
        k(   11) = (   0.0982865  -0.5107115   0.2339981), wk =   0.0740741
        k(   12) = (   0.0982865  -0.5107115   0.3899968), wk =   0.0740741
        k(   13) = (   0.0982865  -0.2837286   0.0779994), wk =   0.0740741
        k(   14) = (   0.0982865  -0.2837286   0.2339981), wk =   0.0740741
        k(   15) = (   0.0982865  -0.2837286   0.3899968), wk =   0.0740741
        k(   16) = (   0.0982865  -0.0567457   0.0779994), wk =   0.0370370
        k(   17) = (   0.0982865  -0.0567457   0.2339981), wk =   0.0370370
        k(   18) = (   0.0982865  -0.0567457   0.3899968), wk =   0.0370370
        k(   19) = (   0.2948594   0.5107115   0.0779994), wk =   0.0370370
        k(   20) = (   0.2948594   0.5107115   0.2339981), wk =   0.0370370
        k(   21) = (   0.2948594   0.5107115   0.3899968), wk =   0.0370370
        k(   22) = (   0.2948594   0.7376943   0.0779994), wk =   0.0740741
        k(   23) = (   0.2948594   0.7376943   0.2339981), wk =   0.0740741
        k(   24) = (   0.2948594   0.7376943   0.3899968), wk =   0.0740741
        k(   25) = (   0.2948594  -0.3972200   0.0779994), wk =   0.0740741
        k(   26) = (   0.2948594  -0.3972200   0.2339981), wk =   0.0740741
        k(   27) = (   0.2948594  -0.3972200   0.3899968), wk =   0.0740741
        k(   28) = (   0.2948594  -0.1702372   0.0779994), wk =   0.0370370
        k(   29) = (   0.2948594  -0.1702372   0.2339981), wk =   0.0370370
        k(   30) = (   0.2948594  -0.1702372   0.3899968), wk =   0.0370370
        k(   31) = (   0.4914323   0.8511858   0.0779994), wk =   0.0370370
        k(   32) = (   0.4914323   0.8511858   0.2339981), wk =   0.0370370
        k(   33) = (   0.4914323   0.8511858   0.3899968), wk =   0.0370370
        k(   34) = (   0.4914323  -0.2837286   0.0779994), wk =   0.0370370
        k(   35) = (   0.4914323  -0.2837286   0.2339981), wk =   0.0370370
        k(   36) = (   0.4914323  -0.2837286   0.3899968), wk =   0.0370370
     extrapolated charge   25.09694, renormalised to   24.00000

     total cpu time spent up to now is     1883.6 secs

     per-process dynamical memory:    52.7 Mb

     Self-consistent Calculation

     iteration #  1     ecut=   120.00 Ry     beta=0.30
     Davidson diagonalization with overlap
     ethr =  1.00E-06,  avg # of iterations =  6.2

     total cpu time spent up to now is     1928.7 secs

     total energy              =    -151.06957185 Ry
     Harris-Foulkes estimate   =    -150.51778282 Ry
     estimated scf accuracy    <       0.03187847 Ry

     iteration #  2     ecut=   120.00 Ry     beta=0.30
     Davidson diagonalization with overlap
     ethr =  1.33E-04,  avg # of iterations =  3.1

     total cpu time spent up to now is     1959.6 secs

     total energy              =    -151.11425824 Ry
     Harris-Foulkes estimate   =    -151.11026795 Ry
     estimated scf accuracy    <       0.00235486 Ry

     iteration #  3     ecut=   120.00 Ry     beta=0.30
     Davidson diagonalization with overlap
     ethr =  9.81E-06,  avg # of iterations =  1.1

     total cpu time spent up to now is     1979.4 secs

     total energy              =    -151.12006882 Ry
     Harris-Foulkes estimate   =    -151.11432718 Ry
     estimated scf accuracy    <       0.00154346 Ry

     iteration #  4     ecut=   120.00 Ry     beta=0.30
     Davidson diagonalization with overlap
     ethr =  6.43E-06,  avg # of iterations =  2.8

     total cpu time spent up to now is     2008.0 secs

     total energy              =    -151.12021472 Ry
     Harris-Foulkes estimate   =    -151.12035859 Ry
     estimated scf accuracy    <       0.00002304 Ry

     iteration #  5     ecut=   120.00 Ry     beta=0.30
     Davidson diagonalization with overlap
     ethr =  9.60E-08,  avg # of iterations =  3.5

     total cpu time spent up to now is     2040.0 secs

     total energy              =    -151.12035136 Ry
     Harris-Foulkes estimate   =    -151.12022515 Ry
     estimated scf accuracy    <       0.00001533 Ry

     iteration #  6     ecut=   120.00 Ry     beta=0.30
     Davidson diagonalization with overlap
     ethr =  6.39E-08,  avg # of iterations =  2.5

     total cpu time spent up to now is     2065.6 secs

     total energy              =    -151.12035343 Ry
     Harris-Foulkes estimate   =    -151.12035342 Ry
     estimated scf accuracy    <       0.00000034 Ry

     iteration #  7     ecut=   120.00 Ry     beta=0.30
     Davidson diagonalization with overlap
     ethr =  1.44E-09,  avg # of iterations =  2.9

     total cpu time spent up to now is     2094.8 secs

     total energy              =    -151.12035444 Ry
     Harris-Foulkes estimate   =    -151.12035352 Ry
     estimated scf accuracy    <       0.00000002 Ry

     iteration #  8     ecut=   120.00 Ry     beta=0.30
     Davidson diagonalization with overlap
     ethr =  1.02E-10,  avg # of iterations =  2.9

     total cpu time spent up to now is     2121.9 secs

     End of self-consistent calculation

          k = 0.0983 0.1702 0.0780 (  8810 PWs)   bands (ev):

   -26.2649 -25.4765  -7.7540  -6.4867  -6.4361  -5.9580  -5.6686  -5.4448
     6.4947   8.7358  12.8624  13.2132

          k = 0.0983 0.1702 0.2340 (  8821 PWs)   bands (ev):

   -26.1634 -25.5865  -7.6085  -6.4105  -6.3087  -6.2486  -5.7715  -5.5306
     7.0767   8.9995  12.6455  13.0747

          k = 0.0983 0.1702 0.3900 (  8822 PWs)   bands (ev):

   -25.9848 -25.7736  -7.2976  -6.8451  -6.1436  -6.0286  -5.9471  -5.7416
     8.0023   8.8419  12.5832  13.0523

          k = 0.0983 0.3972 0.0780 (  8795 PWs)   bands (ev):

   -26.0867 -25.5282  -7.4731  -6.9690  -6.6691  -6.3955  -5.7040  -5.6696
     8.0322   9.4688  10.9172  12.0127

          k = 0.0983 0.3972 0.2340 (  8792 PWs)   bands (ev):

   -26.0119 -25.6029  -7.6875  -7.0512  -6.5079  -6.3325  -5.8177  -5.5370
     8.4079   9.8839  11.1911  11.5030

          k = 0.0983 0.3972 0.3900 (  8800 PWs)   bands (ev):

   -25.8822 -25.7324  -7.6878  -7.4431  -6.3162  -6.0561  -5.8901  -5.5945
     9.0675   9.8146  11.3038  11.5894

          k = 0.0983 0.6242 0.0780 (  8793 PWs)   bands (ev):

   -25.9013 -25.6197  -7.5648  -6.9198  -6.7637  -6.6865  -6.0233  -5.6841
     8.8563   9.9152  10.4249  11.3175

          k = 0.0983 0.6242 0.2340 (  8782 PWs)   bands (ev):

   -25.8604 -25.6539  -7.8606  -7.3552  -6.6978  -6.2288  -5.8631  -5.6549
     9.1385  10.0112  10.7775  11.3893

          k = 0.0983 0.6242 0.3900 (  8761 PWs)   bands (ev):

   -25.7916 -25.7160  -7.9620  -7.7832  -6.4421  -6.1358  -5.7884  -5.5690
     9.5182   9.8596  11.3748  11.5998

          k = 0.0983-0.5107 0.0780 (  8788 PWs)   bands (ev):

   -25.9809 -25.5746  -7.4673  -7.0395  -6.7084  -6.5945  -5.8804  -5.6790
     8.6639   9.7269  10.4916  11.5515

          k = 0.0983-0.5107 0.2340 (  8788 PWs)   bands (ev):

   -25.9245 -25.6268  -7.7825  -7.2615  -6.6280  -6.2817  -5.8440  -5.6009
     8.9378  10.1113  10.7306  11.3538

          k = 0.0983-0.5107 0.3900 (  8779 PWs)   bands (ev):

   -25.8280 -25.7189  -7.8612  -7.6659  -6.3963  -6.1067  -5.8271  -5.5723
     9.4140   9.9672  11.2093  11.4710

          k = 0.0983-0.2837 0.0780 (  8796 PWs)   bands (ev):

   -26.1875 -25.4954  -7.6200  -6.7025  -6.5733  -6.1771  -5.6704  -5.5451
     7.2063   9.1059  11.7570  12.6218

          k = 0.0983-0.2837 0.2340 (  8800 PWs)   bands (ev):

   -26.0971 -25.5904  -7.6290  -6.7388  -6.3728  -6.3409  -5.7919  -5.5049
     7.6978   9.4394  11.9727  12.0449

          k = 0.0983-0.2837 0.3900 (  8820 PWs)   bands (ev):

   -25.9387 -25.7533  -7.4839  -7.1491  -6.2231  -5.9979  -5.9623  -5.6499
     8.5154   9.3273  11.8345  12.1744

          k = 0.0983-0.0567 0.0780 (  8823 PWs)   bands (ev):

   -26.3067 -25.4682  -7.8281  -6.3812  -6.3451  -5.7923  -5.6711  -5.4049
     6.0881   8.5063  13.5819  13.8829

          k = 0.0983-0.0567 0.2340 (  8809 PWs)   bands (ev):

   -26.1996 -25.5861  -7.6060  -6.2689  -6.2566  -6.0827  -5.7631  -5.6038
     6.7222   8.7357  13.1389  14.0585

          k = 0.0983-0.0567 0.3900 (  8822 PWs)   bands (ev):

   -26.0105 -25.7860  -7.1826  -6.6258  -6.1019  -6.0657  -5.9212  -5.8342
     7.7051   8.5578  13.2218  13.8876

          k = 0.2949 0.5107 0.0780 (  8799 PWs)   bands (ev):

   -25.9047 -25.6163  -7.3210  -7.2255  -6.6609  -6.6581  -6.0008  -5.8140
     9.2719  10.0090  10.1617  11.1836

          k = 0.2949 0.5107 0.2340 (  8784 PWs)   bands (ev):

   -25.8629 -25.6515  -7.6450  -7.4195  -6.8972  -6.1056  -6.0005  -5.6347
     9.4885  10.4924  10.6428  10.9100

          k = 0.2949 0.5107 0.3900 (  8784 PWs)   bands (ev):

   -25.7927 -25.7152  -7.8177  -7.7115  -6.6861  -6.3418  -5.6674  -5.5010
     9.8918  10.4086  11.1519  11.2212

          k = 0.2949 0.7377 0.0780 (  8807 PWs)   bands (ev):

   -25.8216 -25.6739  -7.4235  -7.0878  -6.8437  -6.5176  -6.1647  -5.8552
     9.4468  10.1787  10.1974  10.9766

          k = 0.2949 0.7377 0.2340 (  8800 PWs)   bands (ev):

   -25.7978 -25.6895  -7.6280  -7.4300  -7.0893  -6.0794  -5.9677  -5.7149
     9.6655  10.5411  10.6730  10.9590

          k = 0.2949 0.7377 0.3900 (  8778 PWs)   bands (ev):

   -25.7594 -25.7197  -7.8310  -7.7574  -6.8123  -6.4311  -5.5950  -5.5000
    10.0272  10.4155  11.3216  11.3718

          k = 0.2949-0.3972 0.0780 (  8789 PWs)   bands (ev):

   -25.9999 -25.5648  -7.3630  -7.1280  -6.7465  -6.4942  -5.8370  -5.7417
     8.6990   9.7593  10.4327  11.5626

          k = 0.2949-0.3972 0.2340 (  8785 PWs)   bands (ev):

   -25.9400 -25.6211  -7.6857  -7.2678  -6.6804  -6.2295  -5.9129  -5.5686
     8.9939  10.2405  10.7892  11.1477

          k = 0.2949-0.3972 0.3900 (  8777 PWs)   bands (ev):

   -25.8372 -25.7204  -7.7756  -7.6026  -6.4961  -6.1981  -5.7741  -5.5337
     9.5253  10.1949  11.0865  11.3054

          k = 0.2949-0.1702 0.0780 (  8796 PWs)   bands (ev):

   -26.1523 -25.5059  -7.5663  -6.8436  -6.5316  -6.3165  -5.6475  -5.6001
     7.4979   9.2325  11.4241  12.4021

          k = 0.2949-0.1702 0.2340 (  8799 PWs)   bands (ev):

   -26.0671 -25.5938  -7.6577  -6.8455  -6.4189  -6.3637  -5.7720  -5.5228
     7.9451   9.5938  11.6616  11.8299

          k = 0.2949-0.1702 0.3900 (  8812 PWs)   bands (ev):

   -25.9185 -25.7452  -7.5727  -7.2698  -6.2196  -5.9829  -5.9650  -5.6452
     8.7054   9.4961  11.6140  11.9288

          k = 0.4914 0.8512 0.0780 (  8798 PWs)   bands (ev):

   -25.8553 -25.6495  -7.5124  -6.9716  -6.8351  -6.5994  -6.1040  -5.7738
     9.1595  10.0744  10.3133  11.1193

          k = 0.4914 0.8512 0.2340 (  8787 PWs)   bands (ev):

   -25.8240 -25.6732  -7.7757  -7.3763  -6.9218  -6.0788  -5.9853  -5.6751
     9.4259  10.2277  10.7359  11.2128

          k = 0.4914 0.8512 0.3900 (  8761 PWs)   bands (ev):

   -25.7724 -25.7171  -7.9112  -7.7744  -6.6505  -6.3023  -5.6729  -5.5196
     9.7898  10.1181  11.3622  11.5125

          k = 0.4914-0.2837 0.0780 (  8798 PWs)   bands (ev):

   -25.9460 -25.5935  -7.5481  -6.9524  -6.7003  -6.6922  -5.9453  -5.6469
     8.6863   9.7774  10.4943  11.4783

          k = 0.4914-0.2837 0.2340 (  8788 PWs)   bands (ev):

   -25.8962 -25.6379  -7.8590  -7.3093  -6.5615  -6.3370  -5.7971  -5.6444
     8.9598   9.9803  10.7662  11.4451

          k = 0.4914-0.2837 0.3900 (  8773 PWs)   bands (ev):

   -25.8117 -25.7170  -7.9424  -7.7439  -6.3287  -6.0493  -5.8656  -5.6035
     9.3773   9.8077  11.3243  11.5885

!    total energy              =    -151.12035446 Ry
     Harris-Foulkes estimate   =    -151.12035445 Ry
     estimated scf accuracy    <          7.2E-09 Ry

     The total energy is the sum of the following terms:

     one-electron contribution =     -19.92318847 Ry
     hartree contribution      =      22.26493849 Ry
     xc contribution           =     -24.57409905 Ry
     ewald contribution        =    -128.88800543 Ry

     convergence has been achieved in   8 iterations

     Forces acting on atoms (Ry/au):

     atom    1 type  2   force =    -0.00000000    0.00000000    0.00000000
     atom    2 type  2   force =     0.00000000    0.00000000    0.00000000
     atom    3 type  1   force =    -0.00000000   -0.00000000   -0.00000000
     atom    4 type  1   force =    -0.00000000    0.00000000    0.00000000
     atom    5 type  1   force =     0.00000000    0.00000000    0.00000000
     atom    6 type  1   force =     0.00000000    0.00000000    0.00000000

     Total force =     0.000000     Total SCF correction =     0.000000


     entering subroutine stress ...

          total   stress  (Ry/bohr**3)                   (kbar)     P=  987.73
   0.00675130   0.00000000  -0.00000000        993.15      0.00     -0.00
   0.00000000   0.00675130   0.00000000          0.00    993.15      0.00
  -0.00000000   0.00000000   0.00664084         -0.00      0.00    976.90


     number of scf cycles    =   4
     number of bfgs steps    =   3

     enthalpy old            =    -149.4605693089 Ry
     enthalpy new            =    -149.4662484542 Ry

     CASE: enthalpy_new < enthalpy_old

     new trust radius        =       0.0089345948 bohr
     new conv_thr            =       0.0000000100 Ry

     new unit-cell volume =    242.45645 a.u.^3 (    35.92834 Ang^3 )

CELL_PARAMETERS (alat=  7.15200000)
   0.847557583   0.000000000  -0.000000000
  -0.423778791   0.734006398  -0.000000000
   0.000000000  -0.000000000   1.065325119

ATOMIC_POSITIONS (crystal)
Ca       0.333333333   0.666666667   0.250000000
Ca       0.666666667   0.333333333   0.750000000
H        0.333333333   0.666666667   0.750000000
H        0.666666667   0.333333333   0.250000000
H        0.000000000   0.000000000   0.000000000
H        0.000000000   0.000000000   0.500000000



     Writing output data file CaH2_18GPa-blyp-1000.save
     NEW-OLD atomic charge density approx. for the potential
     NEW k-points:
        k(    1) = (   0.0983217   0.1702982   0.0782234), wk =   0.0370370
        k(    2) = (   0.0983217   0.1702982   0.2346701), wk =   0.0370370
        k(    3) = (   0.0983217   0.1702982   0.3911169), wk =   0.0370370
        k(    4) = (   0.0983217   0.3973626   0.0782234), wk =   0.0740741
        k(    5) = (   0.0983217   0.3973626   0.2346701), wk =   0.0740741
        k(    6) = (   0.0983217   0.3973626   0.3911169), wk =   0.0740741
        k(    7) = (   0.0983217   0.6244269   0.0782234), wk =   0.0740741
        k(    8) = (   0.0983217   0.6244269   0.2346701), wk =   0.0740741
        k(    9) = (   0.0983217   0.6244269   0.3911169), wk =   0.0740741
        k(   10) = (   0.0983217  -0.5108947   0.0782234), wk =   0.0740741
        k(   11) = (   0.0983217  -0.5108947   0.2346701), wk =   0.0740741
        k(   12) = (   0.0983217  -0.5108947   0.3911169), wk =   0.0740741
        k(   13) = (   0.0983217  -0.2838304   0.0782234), wk =   0.0740741
        k(   14) = (   0.0983217  -0.2838304   0.2346701), wk =   0.0740741
        k(   15) = (   0.0983217  -0.2838304   0.3911169), wk =   0.0740741
        k(   16) = (   0.0983217  -0.0567661   0.0782234), wk =   0.0370370
        k(   17) = (   0.0983217  -0.0567661   0.2346701), wk =   0.0370370
        k(   18) = (   0.0983217  -0.0567661   0.3911169), wk =   0.0370370
        k(   19) = (   0.2949652   0.5108947   0.0782234), wk =   0.0370370
        k(   20) = (   0.2949652   0.5108947   0.2346701), wk =   0.0370370
        k(   21) = (   0.2949652   0.5108947   0.3911169), wk =   0.0370370
        k(   22) = (   0.2949652   0.7379591   0.0782234), wk =   0.0740741
        k(   23) = (   0.2949652   0.7379591   0.2346701), wk =   0.0740741
        k(   24) = (   0.2949652   0.7379591   0.3911169), wk =   0.0740741
        k(   25) = (   0.2949652  -0.3973626   0.0782234), wk =   0.0740741
        k(   26) = (   0.2949652  -0.3973626   0.2346701), wk =   0.0740741
        k(   27) = (   0.2949652  -0.3973626   0.3911169), wk =   0.0740741
        k(   28) = (   0.2949652  -0.1702982   0.0782234), wk =   0.0370370
        k(   29) = (   0.2949652  -0.1702982   0.2346701), wk =   0.0370370
        k(   30) = (   0.2949652  -0.1702982   0.3911169), wk =   0.0370370
        k(   31) = (   0.4916087   0.8514912   0.0782234), wk =   0.0370370
        k(   32) = (   0.4916087   0.8514912   0.2346701), wk =   0.0370370
        k(   33) = (   0.4916087   0.8514912   0.3911169), wk =   0.0370370
        k(   34) = (   0.4916087  -0.2838304   0.0782234), wk =   0.0370370
        k(   35) = (   0.4916087  -0.2838304   0.2346701), wk =   0.0370370
        k(   36) = (   0.4916087  -0.2838304   0.3911169), wk =   0.0370370
     extrapolated charge   23.91383, renormalised to   24.00000

     total cpu time spent up to now is     2248.7 secs

     per-process dynamical memory:    52.7 Mb

     Self-consistent Calculation

     iteration #  1     ecut=   120.00 Ry     beta=0.30
     Davidson diagonalization with overlap
     ethr =  1.00E-06,  avg # of iterations =  4.0

     total cpu time spent up to now is     2281.8 secs

     total energy              =    -151.11411325 Ry
     Harris-Foulkes estimate   =    -151.15935282 Ry
     estimated scf accuracy    <       0.00024140 Ry

     iteration #  2     ecut=   120.00 Ry     beta=0.30
     Davidson diagonalization with overlap
     ethr =  1.01E-06,  avg # of iterations =  3.1

     total cpu time spent up to now is     2312.7 secs

     total energy              =    -151.11443604 Ry
     Harris-Foulkes estimate   =    -151.11438091 Ry
     estimated scf accuracy    <       0.00001099 Ry

     iteration #  3     ecut=   120.00 Ry     beta=0.30
     Davidson diagonalization with overlap
     ethr =  4.58E-08,  avg # of iterations =  1.2

     total cpu time spent up to now is     2332.4 secs

     total energy              =    -151.11450370 Ry
     Harris-Foulkes estimate   =    -151.11443645 Ry
     estimated scf accuracy    <       0.00000711 Ry

     iteration #  4     ecut=   120.00 Ry     beta=0.30
     Davidson diagonalization with overlap
     ethr =  2.96E-08,  avg # of iterations =  2.7

     total cpu time spent up to now is     2360.8 secs

     total energy              =    -151.11450498 Ry
     Harris-Foulkes estimate   =    -151.11450510 Ry
     estimated scf accuracy    <       0.00000007 Ry

[...]
     --------------------
     sticks:   dense  smooth     PW     G-vecs:    dense   smooth      PW
     Sum        1213    1213    361                43013    43013    6905



     bravais-lattice index     =            4
     lattice parameter (alat)  =       7.1520  a.u.
     unit-cell volume          =     242.3373 (a.u.)^3
     number of atoms/cell      =            6
     number of atomic types    =            2
     number of electrons       =        24.00
     number of Kohn-Sham states=           12
     kinetic-energy cutoff     =     120.0000  Ry
     charge density cutoff     =     480.0000  Ry
     convergence threshold     =      1.0E-08
     mixing beta               =       0.3000
     number of iterations used =           16  local-TF  mixing
     Exchange-correlation      = BLYP ( 1 3 1 3 0)
     EXX-fraction              =        0.00

     celldm(1)=   7.152000  celldm(2)=   0.000000  celldm(3)=   1.250400
     celldm(4)=   0.000000  celldm(5)=   0.000000  celldm(6)=   0.000000

     crystal axes: (cart. coord. in units of alat)
               a(1) = (   0.847863  -0.000000  -0.000000 )  
               a(2) = (  -0.423931   0.734271  -0.000000 )  
               a(3) = (  -0.000000  -0.000000   1.064035 )  

     reciprocal axes: (cart. coord. in units 2 pi/alat)
               b(1) = (  1.179436  0.680948  0.000000 )  
               b(2) = (  0.000000  1.361895  0.000000 )  
               b(3) = (  0.000000  0.000000  0.939819 )  


     PseudoPot. # 1 for H  read from file:
     /home/ilia/espresso/pseudo/H.blyp-vbc.UPF
     MD5 check sum: 64d25ad537c4b939b17faee1147b797b
     Pseudo is Norm-conserving, Zval =  1.0
     Generated by new atomic code, or converted to UPF format
     Using radial grid of  243 points,  0 beta functions with: 

     PseudoPot. # 2 for Ca read from file:
     /home/ilia/espresso/pseudo/Ca.blyp-sp-hgh.UPF
     MD5 check sum: 357a6b692114ea82b84239caae8ecfc0
     Pseudo is Norm-conserving, Zval = 10.0
     Generated in analytical, separable form
     Using radial grid of 1169 points,  5 beta functions with: 
                l(1) =   0
                l(2) =   0
                l(3) =   1
                l(4) =   1
                l(5) =   2

     atomic species   valence    mass     pseudopotential
        H              1.00     1.00700     H ( 1.00)
        Ca            10.00    40.07800     Ca( 1.00)

     24 Sym. Ops., with inversion, found (12 have fractional translation)



   Cartesian axes

     site n.     atom                  positions (alat units)
         1           Ca  tau(   1) = (  -0.0000000   0.4895139   0.2660087  )
         2           Ca  tau(   2) = (   0.4239314   0.2447569   0.7980262  )
         3           H   tau(   3) = (  -0.0000000   0.4895139   0.7980262  )
         4           H   tau(   4) = (   0.4239314   0.2447569   0.2660087  )
         5           H   tau(   5) = (  -0.0000000   0.0000000   0.0000000  )
         6           H   tau(   6) = (   0.0000000   0.0000000   0.5320175  )

     number of k points=    36
                       cart. coord. in units 2pi/alat
        k(    1) = (   0.0982863   0.1702369   0.0783182), wk =   0.0370370
        k(    2) = (   0.0982863   0.1702369   0.2349547), wk =   0.0370370
        k(    3) = (   0.0982863   0.1702369   0.3915911), wk =   0.0370370
        k(    4) = (   0.0982863   0.3972195   0.0783182), wk =   0.0740741
        k(    5) = (   0.0982863   0.3972195   0.2349547), wk =   0.0740741
        k(    6) = (   0.0982863   0.3972195   0.3915911), wk =   0.0740741
        k(    7) = (   0.0982863   0.6242021   0.0783182), wk =   0.0740741
        k(    8) = (   0.0982863   0.6242021   0.2349547), wk =   0.0740741
        k(    9) = (   0.0982863   0.6242021   0.3915911), wk =   0.0740741
        k(   10) = (   0.0982863  -0.5107108   0.0783182), wk =   0.0740741
        k(   11) = (   0.0982863  -0.5107108   0.2349547), wk =   0.0740741
        k(   12) = (   0.0982863  -0.5107108   0.3915911), wk =   0.0740741
        k(   13) = (   0.0982863  -0.2837282   0.0783182), wk =   0.0740741
        k(   14) = (   0.0982863  -0.2837282   0.2349547), wk =   0.0740741
        k(   15) = (   0.0982863  -0.2837282   0.3915911), wk =   0.0740741
        k(   16) = (   0.0982863  -0.0567456   0.0783182), wk =   0.0370370
        k(   17) = (   0.0982863  -0.0567456   0.2349547), wk =   0.0370370
        k(   18) = (   0.0982863  -0.0567456   0.3915911), wk =   0.0370370
        k(   19) = (   0.2948590   0.5107108   0.0783182), wk =   0.0370370
        k(   20) = (   0.2948590   0.5107108   0.2349547), wk =   0.0370370
        k(   21) = (   0.2948590   0.5107108   0.3915911), wk =   0.0370370
        k(   22) = (   0.2948590   0.7376933   0.0783182), wk =   0.0740741
        k(   23) = (   0.2948590   0.7376933   0.2349547), wk =   0.0740741
        k(   24) = (   0.2948590   0.7376933   0.3915911), wk =   0.0740741
        k(   25) = (   0.2948590  -0.3972195   0.0783182), wk =   0.0740741
        k(   26) = (   0.2948590  -0.3972195   0.2349547), wk =   0.0740741
        k(   27) = (   0.2948590  -0.3972195   0.3915911), wk =   0.0740741
        k(   28) = (   0.2948590  -0.1702369   0.0783182), wk =   0.0370370
        k(   29) = (   0.2948590  -0.1702369   0.2349547), wk =   0.0370370
        k(   30) = (   0.2948590  -0.1702369   0.3915911), wk =   0.0370370
        k(   31) = (   0.4914317   0.8511846   0.0783182), wk =   0.0370370
        k(   32) = (   0.4914317   0.8511846   0.2349547), wk =   0.0370370
        k(   33) = (   0.4914317   0.8511846   0.3915911), wk =   0.0370370
        k(   34) = (   0.4914317  -0.2837282   0.0783182), wk =   0.0370370
        k(   35) = (   0.4914317  -0.2837282   0.2349547), wk =   0.0370370
        k(   36) = (   0.4914317  -0.2837282   0.3915911), wk =   0.0370370

     Dense  grid:    43013 G-vectors     FFT dimensions: (  45,  45,  54)

     Largest allocated arrays     est. size (Mb)     dimensions
        Kohn-Sham Wavefunctions         0.99 Mb     (   5422,   12)
        NL pseudopotentials             2.15 Mb     (   5422,   26)
        Each V/rho on FFT grid          1.67 Mb     ( 109350)
        Each G-vector array             0.33 Mb     (  43013)
        G-vector shells                 0.02 Mb     (   1973)
     Largest temporary arrays     est. size (Mb)     dimensions
        Auxiliary wavefunctions         3.97 Mb     (   5422,   48)
        Each subspace H/S matrix        0.04 Mb     (  48,  48)
        Each <psi_i|beta_j> matrix      0.00 Mb     (     26,   12)
        Arrays for rho mixing          26.70 Mb     ( 109350,  16)

     Initial potential from superposition of free atoms

     starting charge   23.98928, renormalised to   24.00000
     Starting wfc are   30 randomized atomic wfcs

     Writing output data file CaH2_18GPa-blyp-1000.save

     total cpu time spent up to now is     3026.0 secs

     per-process dynamical memory:    35.0 Mb

     Self-consistent Calculation

     iteration #  1     ecut=   120.00 Ry     beta=0.30
     Davidson diagonalization with overlap
     ethr =  1.00E-06,  avg # of iterations =  8.1

     total cpu time spent up to now is     3072.5 secs

     total energy              =    -151.15649463 Ry
     Harris-Foulkes estimate   =    -151.19259593 Ry
     estimated scf accuracy    <       0.30118280 Ry

     iteration #  2     ecut=   120.00 Ry     beta=0.30
     Davidson diagonalization with overlap
     ethr =  1.25E-03,  avg # of iterations =  1.0

     total cpu time spent up to now is     3087.9 secs

     total energy              =    -151.08408799 Ry
     Harris-Foulkes estimate   =    -151.15778812 Ry
     estimated scf accuracy    <       0.17422120 Ry

     iteration #  3     ecut=   120.00 Ry     beta=0.30
     Davidson diagonalization with overlap
     ethr =  7.26E-04,  avg # of iterations =  2.9

     total cpu time spent up to now is     3106.0 secs

     total energy              =    -151.10878040 Ry
     Harris-Foulkes estimate   =    -151.10968136 Ry
     estimated scf accuracy    <       0.00316947 Ry

     iteration #  4     ecut=   120.00 Ry     beta=0.30
     Davidson diagonalization with overlap
     ethr =  1.32E-05,  avg # of iterations =  3.5

     total cpu time spent up to now is     3125.1 secs

     total energy              =    -151.11020189 Ry
     Harris-Foulkes estimate   =    -151.10991053 Ry
     estimated scf accuracy    <       0.00058426 Ry

     iteration #  5     ecut=   120.00 Ry     beta=0.30
     Davidson diagonalization with overlap
     ethr =  2.43E-06,  avg # of iterations =  2.9

     total cpu time spent up to now is     3143.4 secs

     total energy              =    -151.11023538 Ry
     Harris-Foulkes estimate   =    -151.11033041 Ry
     estimated scf accuracy    <       0.00020629 Ry

     iteration #  6     ecut=   120.00 Ry     beta=0.30
     Davidson diagonalization with overlap
     ethr =  8.60E-07,  avg # of iterations =  2.6

     total cpu time spent up to now is     3161.5 secs

     total energy              =    -151.11026754 Ry
     Harris-Foulkes estimate   =    -151.11026802 Ry
     estimated scf accuracy    <       0.00000149 Ry

     iteration #  7     ecut=   120.00 Ry     beta=0.30
     Davidson diagonalization with overlap
     ethr =  6.20E-09,  avg # of iterations =  4.0

     total cpu time spent up to now is     3191.2 secs

     total energy              =    -151.11027028 Ry
     Harris-Foulkes estimate   =    -151.11027025 Ry
     estimated scf accuracy    <       0.00000102 Ry

     iteration #  8     ecut=   120.00 Ry     beta=0.30
     Davidson diagonalization with overlap
     ethr =  4.25E-09,  avg # of iterations =  1.0

     total cpu time spent up to now is     3206.5 secs

     total energy              =    -151.11027009 Ry
     Harris-Foulkes estimate   =    -151.11027030 Ry
     estimated scf accuracy    <       0.00000067 Ry

     iteration #  9     ecut=   120.00 Ry     beta=0.30
     Davidson diagonalization with overlap
     ethr =  2.79E-09,  avg # of iterations =  2.7

     total cpu time spent up to now is     3224.1 secs

     End of self-consistent calculation

          k = 0.0983 0.1702 0.0783 (  5392 PWs)   bands (ev):

   -26.2015 -25.3962  -7.7014  -6.4310  -6.3819  -5.8903  -5.5979  -5.3688
     6.5543   8.7722  12.9006  13.3150

          k = 0.0983 0.1702 0.2350 (  5392 PWs)   bands (ev):

   -26.0978 -25.5087  -7.5574  -6.3520  -6.2486  -6.1890  -5.7031  -5.4558
     7.1422   9.0529  12.7262  13.1225

          k = 0.0983 0.1702 0.3916 (  5405 PWs)   bands (ev):

   -25.9155 -25.6999  -7.2464  -6.7900  -6.0835  -5.9626  -5.8826  -5.6703
     8.0748   8.9147  12.6466  13.1120

          k = 0.0983 0.3972 0.0783 (  5384 PWs)   bands (ev):

   -26.0208 -25.4504  -7.4206  -6.9128  -6.6131  -6.3320  -5.6308  -5.5968
     8.0901   9.5074  10.9591  12.1025

          k = 0.0983 0.3972 0.2350 (  5372 PWs)   bands (ev):

   -25.9443 -25.5265  -7.6410  -6.9961  -6.4522  -6.2658  -5.7480  -5.4597
     8.4685   9.9376  11.2461  11.5753

          k = 0.0983 0.3972 0.3916 (  5385 PWs)   bands (ev):

   -25.8119 -25.6588  -7.6429  -7.3947  -6.2571  -5.9913  -5.8168  -5.5172
     9.1326   9.8851  11.3658  11.6554

          k = 0.0983 0.6242 0.0783 (  5369 PWs)   bands (ev):

   -25.8325 -25.5447  -7.5135  -6.8627  -6.7012  -6.6296  -5.9526  -5.6102
     8.8933   9.9715  10.4758  11.4018

          k = 0.0983 0.6242 0.2350 (  5376 PWs)   bands (ev):

   -25.7906 -25.5796  -7.8151  -7.3025  -6.6438  -6.1598  -5.7923  -5.5773
     9.1831  10.0746  10.8361  11.4672

          k = 0.0983 0.6242 0.3916 (  5370 PWs)   bands (ev):

   -25.7202 -25.6429  -7.9191  -7.7379  -6.3836  -6.0711  -5.7124  -5.4896
     9.5724   9.9219  11.4480  11.6795

          k = 0.0983-0.5107 0.0783 (  5379 PWs)   bands (ev):

   -25.9134 -25.4984  -7.4158  -6.9823  -6.6506  -6.5330  -5.8088  -5.6056
     8.7120   9.7739  10.5381  11.6375

          k = 0.0983-0.5107 0.2350 (  5367 PWs)   bands (ev):

   -25.8556 -25.5515  -7.7368  -7.2079  -6.5733  -6.2132  -5.7737  -5.5233
     8.9902  10.1706  10.7866  11.4292

          k = 0.0983-0.5107 0.3916 (  5378 PWs)   bands (ev):

   -25.7571 -25.6456  -7.8177  -7.6196  -6.3376  -6.0419  -5.7519  -5.4936
     9.4722  10.0320  11.2781  11.5457

          k = 0.0983-0.2837 0.0783 (  5383 PWs)   bands (ev):

   -26.1230 -25.4162  -7.5672  -6.6468  -6.5185  -6.1115  -5.5987  -5.4702
     7.2662   9.1426  11.7963  12.7171

          k = 0.0983-0.2837 0.2350 (  5390 PWs)   bands (ev):

   -26.0307 -25.5132  -7.5804  -6.6815  -6.3161  -6.2771  -5.7229  -5.4284
     7.7619   9.4926  12.0439  12.0991

          k = 0.0983-0.2837 0.3916 (  5396 PWs)   bands (ev):

   -25.8690 -25.6796  -7.4363  -7.0979  -6.1635  -5.9330  -5.8924  -5.5751
     8.5854   9.3996  11.8952  12.2349

          k = 0.0983-0.0567 0.0783 (  5382 PWs)   bands (ev):

   -26.2438 -25.3874  -7.7757  -6.3260  -6.2903  -5.7233  -5.6011  -5.3284
     6.1473   8.5427  13.6884  13.9202

          k = 0.0983-0.0567 0.2350 (  5381 PWs)   bands (ev):

   -26.1343 -25.5079  -7.5534  -6.2107  -6.1998  -6.0178  -5.6952  -5.5312
     6.7882   8.7893  13.2250  14.1065

          k = 0.0983-0.0567 0.3916 (  5422 PWs)   bands (ev):

   -25.9415 -25.7124  -7.1283  -6.5670  -6.0417  -6.0030  -5.8569  -5.7664
     7.7788   8.6308  13.2902  13.9501

          k = 0.2949 0.5107 0.0783 (  5382 PWs)   bands (ev):

   -25.8358 -25.5415  -7.2712  -7.1715  -6.5978  -6.5974  -5.9306  -5.7393
     9.3219  10.0506  10.2101  11.2645

          k = 0.2949 0.5107 0.2350 (  5370 PWs)   bands (ev):

   -25.7930 -25.5772  -7.5985  -7.3688  -6.8447  -6.0332  -5.9303  -5.5574
     9.5405  10.5452  10.7025  10.9855

          k = 0.2949 0.5107 0.3916 (  5365 PWs)   bands (ev):

   -25.7211 -25.6421  -7.7746  -7.6665  -6.6292  -6.2777  -5.5896  -5.4210
     9.9490  10.4742  11.2221  11.2946

          k = 0.2949 0.7377 0.0783 (  5392 PWs)   bands (ev):

   -25.7514 -25.6006  -7.3748  -7.0330  -6.7842  -6.4528  -6.0959  -5.7799
     9.4895  10.2290  10.2449  11.0551

          k = 0.2949 0.7377 0.2350 (  5372 PWs)   bands (ev):

   -25.7269 -25.6162  -7.5810  -7.3802  -7.0383  -6.0082  -5.8944  -5.6381
     9.7132  10.6046  10.7302  11.0305

          k = 0.2949 0.7377 0.3916 (  5363 PWs)   bands (ev):

   -25.6874 -25.6469  -7.7881  -7.7134  -6.7558  -6.3673  -5.5159  -5.4196
    10.0830  10.4808  11.3940  11.4466

          k = 0.2949-0.3972 0.0783 (  5375 PWs)   bands (ev):

   -25.9327 -25.4882  -7.3105  -7.0751  -6.6858  -6.4326  -5.7652  -5.6680
     8.7545   9.7996  10.4762  11.6475

          k = 0.2949-0.3972 0.2350 (  5372 PWs)   bands (ev):

   -25.8714 -25.5457  -7.6395  -7.2152  -6.6261  -6.1598  -5.8429  -5.4911
     9.0513  10.2938  10.8450  11.2217

          k = 0.2949-0.3972 0.3916 (  5379 PWs)   bands (ev):

   -25.7663 -25.6470  -7.7317  -7.5561  -6.4380  -6.1336  -5.6984  -5.4549
     9.5866  10.2635  11.1515  11.3750

          k = 0.2949-0.1702 0.0783 (  5395 PWs)   bands (ev):

   -26.0873 -25.4273  -7.5136  -6.7870  -6.4787  -6.2499  -5.5755  -5.5258
     7.5572   9.2698  11.4646  12.4957

          k = 0.2949-0.1702 0.2350 (  5388 PWs)   bands (ev):

   -26.0004 -25.5168  -7.6102  -6.7881  -6.3636  -6.2985  -5.7028  -5.4458
     8.0079   9.6472  11.7193  11.8985

          k = 0.2949-0.1702 0.3916 (  5396 PWs)   bands (ev):

   -25.8487 -25.6715  -7.5263  -7.2197  -6.1601  -5.9183  -5.8934  -5.5693
     8.7735   9.5677  11.6751  11.9914

          k = 0.4914 0.8512 0.0783 (  5380 PWs)   bands (ev):

   -25.7858 -25.5754  -7.4618  -6.9189  -6.7731  -6.5371  -6.0341  -5.6993
     9.1976  10.1294  10.3627  11.2001

          k = 0.4914 0.8512 0.2350 (  5374 PWs)   bands (ev):

   -25.7536 -25.5994  -7.7295  -7.3248  -6.8696  -6.0074  -5.9143  -5.5978
     9.4711  10.2919  10.7936  11.2879

          k = 0.4914 0.8512 0.3916 (  5351 PWs)   bands (ev):

   -25.7005 -25.6441  -7.8683  -7.7298  -6.5932  -6.2381  -5.5952  -5.4396
     9.8443  10.1817  11.4351  11.5906

          k = 0.4914-0.2837 0.0783 (  5369 PWs)   bands (ev):

   -25.8779 -25.5178  -7.4967  -6.8924  -6.6408  -6.6353  -5.8741  -5.5734
     8.7268   9.8311  10.5440  11.5647

          k = 0.4914-0.2837 0.2350 (  5372 PWs)   bands (ev):

   -25.8270 -25.5630  -7.8136  -7.2557  -6.5073  -6.2683  -5.7269  -5.5663
     9.0071  10.0422  10.8241  11.5231

          k = 0.4914-0.2837 0.3916 (  5376 PWs)   bands (ev):

   -25.7405 -25.6438  -7.8993  -7.6979  -6.2698  -5.9845  -5.7902  -5.5244
     9.4328   9.8703  11.3962  11.6671

!    total energy              =    -151.11027018 Ry
     Harris-Foulkes estimate   =    -151.11027018 Ry
     estimated scf accuracy    <          1.9E-09 Ry

     The total energy is the sum of the following terms:

     one-electron contribution =     -19.68176628 Ry
     hartree contribution      =      22.20516817 Ry
     xc contribution           =     -24.58170613 Ry
     ewald contribution        =    -129.05196595 Ry

     convergence has been achieved in   9 iterations

     Forces acting on atoms (Ry/au):

     atom    1 type  2   force =     0.00000000    0.00000000    0.00000000
     atom    2 type  2   force =    -0.00000000   -0.00000000   -0.00000000
     atom    3 type  1   force =     0.00000000    0.00000000   -0.00000000
     atom    4 type  1   force =    -0.00000000   -0.00000000    0.00000000
     atom    5 type  1   force =    -0.00000000   -0.00000000   -0.00000000
     atom    6 type  1   force =    -0.00000000   -0.00000000    0.00000000

     Total force =     0.000000     Total SCF correction =     0.000000


     entering subroutine stress ...

          total   stress  (Ry/bohr**3)                   (kbar)     P=  991.65
   0.00674135  -0.00000000   0.00000000        991.69     -0.00      0.00
  -0.00000000   0.00674135  -0.00000000         -0.00    991.69     -0.00
   0.00000000   0.00000000   0.00674067          0.00      0.00    991.59


     Writing output data file CaH2_18GPa-blyp-1000.save

     init_run     :     87.30s CPU     87.99s WALL (       2 calls)
     electrons    :   2258.98s CPU   2300.02s WALL (       8 calls)
     update_pot   :    317.95s CPU    320.10s WALL (       6 calls)
     forces       :    151.84s CPU    152.94s WALL (       8 calls)
     stress       :    372.99s CPU    375.71s WALL (       8 calls)

     Called by init_run:
     wfcinit      :     40.80s CPU     41.34s WALL (       2 calls)
     potinit      :     18.34s CPU     18.42s WALL (       2 calls)

     Called by electrons:
     c_bands      :   1928.11s CPU   1960.61s WALL (      88 calls)
     sum_band     :    278.71s CPU    285.29s WALL (      88 calls)
     v_of_rho     :     22.89s CPU     23.46s WALL (      93 calls)
     mix_rho      :     30.09s CPU     31.25s WALL (      88 calls)

     Called by c_bands:
     init_us_2    :    115.64s CPU    117.93s WALL (    6984 calls)
     cegterg      :   1814.12s CPU   1832.04s WALL (    3168 calls)

     Called by *egterg:
     h_psi        :   1408.80s CPU   1422.27s WALL (   11925 calls)
     g_psi        :      9.41s CPU      9.54s WALL (    8685 calls)
     cdiaghg      :      6.95s CPU      6.96s WALL (   11529 calls)

     Called by h_psi:
     add_vuspsi   :    130.51s CPU    131.69s WALL (   11925 calls)

     General routines
     calbec       :    145.60s CPU    146.95s WALL (   12501 calls)
     fft          :      6.74s CPU      6.79s WALL (    1091 calls)
     ffts         :      9.43s CPU      9.48s WALL (    1469 calls)
     fftw         :    982.83s CPU    991.29s WALL (  254818 calls)
     davcio       :      1.98s CPU     18.20s WALL (   10152 calls)


     PWSCF        : 53m10.23s CPU    53m58.04s WALL


   This run was terminated on:   5:10:31  15Jun2014            

=------------------------------------------------------------------------------=
   JOB DONE.
=------------------------------------------------------------------------------=
