
     Program PWSCF v.5.0.2 (svn rev. 9392) starts on 11Jun2014 at 17:38:21 

     This program is part of the open-source Quantum ESPRESSO suite
     for quantum simulation of materials; please cite
         "P. Giannozzi et al., J. Phys.:Condens. Matter 21 395502 (2009);
          URL http://www.quantum-espresso.org", 
     in publications or presentations arising from this work. More details at
     http://www.quantum-espresso.org/quote.php

     Serial version

     Current dimensions of program PWSCF are:
     Max number of different atomic species (ntypx) = 10
     Max number of k-points (npk) =  40000
     Max angular momentum in pseudopotentials (lmaxx) =  3
     Waiting for input...
     Reading input from standard input

     G-vector sticks info
     --------------------
     sticks:   dense  smooth     PW     G-vecs:    dense   smooth      PW
     Sum        2933    2933    801               176527   176527   25115



     bravais-lattice index     =            8
     lattice parameter (alat)  =      11.2803  a.u.
     unit-cell volume          =     994.0292 (a.u.)^3
     number of atoms/cell      =           12
     number of atomic types    =            2
     number of electrons       =        48.00
     number of Kohn-Sham states=           24
     kinetic-energy cutoff     =     120.0000  Ry
     charge density cutoff     =     480.0000  Ry
     convergence threshold     =      1.0E-06
     mixing beta               =       0.3000
     number of iterations used =           16  local-TF  mixing
     Exchange-correlation      = BLYP ( 1 3 1 3 0)
     EXX-fraction              =        0.00
     nstep                     =           50


     celldm(1)=  11.280300  celldm(2)=   0.604300  celldm(3)=   1.146000
     celldm(4)=   0.000000  celldm(5)=   0.000000  celldm(6)=   0.000000

     crystal axes: (cart. coord. in units of alat)
               a(1) = (   1.000000   0.000000   0.000000 )  
               a(2) = (   0.000000   0.604300   0.000000 )  
               a(3) = (   0.000000   0.000000   1.146000 )  

     reciprocal axes: (cart. coord. in units 2 pi/alat)
               b(1) = (  1.000000  0.000000  0.000000 )  
               b(2) = (  0.000000  1.654807  0.000000 )  
               b(3) = (  0.000000  0.000000  0.872600 )  


     PseudoPot. # 1 for H  read from file:
     /home/ilia/espresso/pseudo/H.blyp-vbc.UPF
     MD5 check sum: 64d25ad537c4b939b17faee1147b797b
     Pseudo is Norm-conserving, Zval =  1.0
     Generated by new atomic code, or converted to UPF format
     Using radial grid of  243 points,  0 beta functions with: 

     PseudoPot. # 2 for Ca read from file:
     /home/ilia/espresso/pseudo/Ca.blyp-sp-hgh.UPF
     MD5 check sum: 357a6b692114ea82b84239caae8ecfc0
     Pseudo is Norm-conserving, Zval = 10.0
     Generated in analytical, separable form
     Using radial grid of 1169 points,  5 beta functions with: 
                l(1) =   0
                l(2) =   0
                l(3) =   1
                l(4) =   1
                l(5) =   2

     atomic species   valence    mass     pseudopotential
        H              1.00     1.00700     H ( 1.00)
        Ca            10.00    40.07800     Ca( 1.00)

      2 Sym. Ops. (no inversion) found ( 1 have fractional translation)



   Cartesian axes

     site n.     atom                  positions (alat units)
         1           Ca  tau(   1) = (   0.2400000   0.1510750   0.1259454  )
         2           Ca  tau(   2) = (   0.2600000  -0.1510750   0.6989454  )
         3           Ca  tau(   3) = (   0.7400000   0.1510750   0.4470546  )
         4           Ca  tau(   4) = (  -0.2400000  -0.1510750  -0.1259454  )
         5           H   tau(   5) = (   0.3557000   0.1510750   0.4887690  )
         6           H   tau(   6) = (   0.1443000  -0.1510750   1.0617690  )
         7           H   tau(   7) = (   0.8557000   0.1510750   0.0842310  )
         8           H   tau(   8) = (  -0.3557000  -0.1510750  -0.4922070  )
         9           H   tau(   9) = (   0.9754000   0.1510750   0.7752690  )
        10           H   tau(  10) = (  -0.4754000  -0.1510750   1.3482690  )
        11           H   tau(  11) = (   1.4754000   0.1510750  -0.1988310  )
        12           H   tau(  12) = (  -0.9754000  -0.1510750  -0.7752690  )

     number of k points=    24
                       cart. coord. in units 2pi/alat
        k(    1) = (   0.1250000   0.1379006   0.1090750), wk =   0.0833333
        k(    2) = (   0.1250000   0.1379006   0.3272251), wk =   0.0833333
        k(    3) = (   0.1250000   0.4137018   0.1090750), wk =   0.0833333
        k(    4) = (   0.1250000   0.4137018   0.3272251), wk =   0.0833333
        k(    5) = (   0.1250000   0.6895030   0.1090750), wk =   0.0833333
        k(    6) = (   0.1250000   0.6895030   0.3272251), wk =   0.0833333
        k(    7) = (   0.3750000   0.1379006   0.1090750), wk =   0.0833333
        k(    8) = (   0.3750000   0.1379006   0.3272251), wk =   0.0833333
        k(    9) = (   0.3750000   0.4137018   0.1090750), wk =   0.0833333
        k(   10) = (   0.3750000   0.4137018   0.3272251), wk =   0.0833333
        k(   11) = (   0.3750000   0.6895030   0.1090750), wk =   0.0833333
        k(   12) = (   0.3750000   0.6895030   0.3272251), wk =   0.0833333
        k(   13) = (   0.1250000  -0.1379006  -0.1090750), wk =   0.0833333
        k(   14) = (   0.1250000  -0.1379006  -0.3272251), wk =   0.0833333
        k(   15) = (   0.1250000  -0.4137018  -0.1090750), wk =   0.0833333
        k(   16) = (   0.1250000  -0.4137018  -0.3272251), wk =   0.0833333
        k(   17) = (   0.1250000  -0.6895030  -0.1090750), wk =   0.0833333
        k(   18) = (   0.1250000  -0.6895030  -0.3272251), wk =   0.0833333
        k(   19) = (   0.3750000  -0.1379006  -0.1090750), wk =   0.0833333
        k(   20) = (   0.3750000  -0.1379006  -0.3272251), wk =   0.0833333
        k(   21) = (   0.3750000  -0.4137018  -0.1090750), wk =   0.0833333
        k(   22) = (   0.3750000  -0.4137018  -0.3272251), wk =   0.0833333
        k(   23) = (   0.3750000  -0.6895030  -0.1090750), wk =   0.0833333
        k(   24) = (   0.3750000  -0.6895030  -0.3272251), wk =   0.0833333

     Dense  grid:   176527 G-vectors     FFT dimensions: (  80,  48,  96)

     Largest allocated arrays     est. size (Mb)     dimensions
        Kohn-Sham Wavefunctions         8.09 Mb     (  22100,   24)
        NL pseudopotentials            17.54 Mb     (  22100,   52)
        Each V/rho on FFT grid          5.62 Mb     ( 368640)
        Each G-vector array             1.35 Mb     ( 176527)
        G-vector shells                 1.35 Mb     ( 176527)
     Largest temporary arrays     est. size (Mb)     dimensions
        Auxiliary wavefunctions        32.37 Mb     (  22100,   96)
        Each subspace H/S matrix        0.14 Mb     (  96,  96)
        Each <psi_i|beta_j> matrix      0.02 Mb     (     52,   24)
        Arrays for rho mixing          90.00 Mb     ( 368640,  16)

     Initial potential from superposition of free atoms

     starting charge   47.97855, renormalised to   48.00000
     Starting wfc are   60 randomized atomic wfcs

     total cpu time spent up to now is      182.0 secs

     per-process dynamical memory:   102.4 Mb

     Self-consistent Calculation

     iteration #  1     ecut=   120.00 Ry     beta=0.30
     Davidson diagonalization with overlap
     ethr =  1.00E-02,  avg # of iterations =  2.0

     total cpu time spent up to now is      260.4 secs

     total energy              =    -303.26829437 Ry
     Harris-Foulkes estimate   =    -303.32763333 Ry
     estimated scf accuracy    <       0.53771072 Ry

     iteration #  2     ecut=   120.00 Ry     beta=0.30
     Davidson diagonalization with overlap
     ethr =  1.12E-03,  avg # of iterations =  1.0

     total cpu time spent up to now is      329.8 secs

     total energy              =    -303.14881120 Ry
     Harris-Foulkes estimate   =    -303.27652851 Ry
     estimated scf accuracy    <       0.33705714 Ry

     iteration #  3     ecut=   120.00 Ry     beta=0.30
     Davidson diagonalization with overlap
     ethr =  7.02E-04,  avg # of iterations =  2.0

     total cpu time spent up to now is      412.1 secs

     total energy              =    -303.19482081 Ry
     Harris-Foulkes estimate   =    -303.19566338 Ry
     estimated scf accuracy    <       0.01261438 Ry

     iteration #  4     ecut=   120.00 Ry     beta=0.30
     Davidson diagonalization with overlap
     ethr =  2.63E-05,  avg # of iterations =  2.5

     total cpu time spent up to now is      493.0 secs

     total energy              =    -303.19735032 Ry
     Harris-Foulkes estimate   =    -303.19786050 Ry
     estimated scf accuracy    <       0.00492724 Ry

     iteration #  5     ecut=   120.00 Ry     beta=0.30
     Davidson diagonalization with overlap
     ethr =  1.03E-05,  avg # of iterations =  4.0

     total cpu time spent up to now is      588.9 secs

     total energy              =    -303.19869982 Ry
     Harris-Foulkes estimate   =    -303.19876168 Ry
     estimated scf accuracy    <       0.00021279 Ry

     iteration #  6     ecut=   120.00 Ry     beta=0.30
     Davidson diagonalization with overlap
     ethr =  4.43E-07,  avg # of iterations =  3.5

     total cpu time spent up to now is      703.0 secs

     total energy              =    -303.19877360 Ry
     Harris-Foulkes estimate   =    -303.19877080 Ry
     estimated scf accuracy    <       0.00004688 Ry

     iteration #  7     ecut=   120.00 Ry     beta=0.30
     Davidson diagonalization with overlap
     ethr =  9.77E-08,  avg # of iterations =  2.1

     total cpu time spent up to now is      776.0 secs

     total energy              =    -303.19877604 Ry
     Harris-Foulkes estimate   =    -303.19877574 Ry
     estimated scf accuracy    <       0.00002161 Ry

     iteration #  8     ecut=   120.00 Ry     beta=0.30
     Davidson diagonalization with overlap
     ethr =  4.50E-08,  avg # of iterations =  3.0

     total cpu time spent up to now is      879.6 secs

     total energy              =    -303.19878109 Ry
     Harris-Foulkes estimate   =    -303.19878155 Ry
     estimated scf accuracy    <       0.00000111 Ry

     iteration #  9     ecut=   120.00 Ry     beta=0.30
     Davidson diagonalization with overlap
     ethr =  2.31E-09,  avg # of iterations =  3.2

     total cpu time spent up to now is      964.5 secs

     End of self-consistent calculation

          k = 0.1250 0.1379 0.1091 ( 22044 PWs)   bands (ev):

   -35.5381 -35.5195 -35.5034 -35.4917 -16.0610 -16.0017 -15.9786 -15.9210
   -15.8888 -15.8630 -15.8572 -15.8321 -15.8184 -15.8057 -15.8003 -15.7975
    -0.1791   1.8287   2.3145   2.7818   3.2669   3.4819   3.7441   4.3824

          k = 0.1250 0.1379 0.3272 ( 22050 PWs)   bands (ev):

   -35.5357 -35.5215 -35.5044 -35.4911 -16.0409 -16.0066 -15.9467 -15.9214
   -15.8976 -15.8745 -15.8543 -15.8389 -15.8295 -15.8120 -15.8067 -15.7980
     0.2186   0.9410   2.5250   2.8730   3.4175   3.4352   4.0098   4.3551

          k = 0.1250 0.4137 0.1091 ( 22086 PWs)   bands (ev):

   -35.5307 -35.5140 -35.4995 -35.4864 -16.0357 -15.9776 -15.9708 -15.9357
   -15.9150 -15.9069 -15.8976 -15.8779 -15.8670 -15.8533 -15.8127 -15.8064
     0.4427   2.1723   2.5764   2.9152   3.3067   3.4419   3.5554   4.0390

          k = 0.1250 0.4137 0.3272 ( 22073 PWs)   bands (ev):

   -35.5293 -35.5151 -35.5001 -35.4860 -16.0216 -15.9946 -15.9541 -15.9381
   -15.9293 -15.9172 -15.8915 -15.8757 -15.8557 -15.8442 -15.8230 -15.8122
     0.7965   1.4312   2.7246   2.9810   3.3704   3.3777   3.7386   3.9959

          k = 0.1250 0.6895 0.1091 ( 22100 PWs)   bands (ev):

   -35.5230 -35.5083 -35.4958 -35.4810 -16.0206 -16.0119 -15.9949 -15.9829
   -15.9524 -15.9438 -15.9238 -15.8887 -15.8682 -15.8483 -15.8289 -15.8186
     1.5153   2.6787   2.7091   2.9341   3.0764   3.2555   3.3820   3.5035

          k = 0.1250 0.6895 0.3272 ( 22077 PWs)   bands (ev):

   -35.5228 -35.5084 -35.4959 -35.4809 -16.0367 -16.0259 -15.9893 -15.9765
   -15.9656 -15.9518 -15.9075 -15.8873 -15.8521 -15.8444 -15.8236 -15.8209
     1.7820   2.2401   2.8553   2.9576   3.0991   3.1918   3.3221   3.3926

          k = 0.3750 0.1379 0.1091 ( 22079 PWs)   bands (ev):

   -35.5319 -35.5239 -35.5017 -35.4954 -16.0390 -16.0293 -15.9929 -15.9083
   -15.8652 -15.8569 -15.8483 -15.8358 -15.8288 -15.8121 -15.8079 -15.8027
     0.3288   1.2162   2.2238   2.7729   3.0852   3.4518   4.1191   4.4303

          k = 0.3750 0.1379 0.3272 ( 22022 PWs)   bands (ev):

   -35.5304 -35.5239 -35.5027 -35.4955 -16.0212 -16.0029 -15.9830 -15.9367
   -15.8762 -15.8675 -15.8464 -15.8363 -15.8252 -15.8182 -15.8111 -15.8042
     0.6929   1.3050   1.6186   2.1184   3.7122   3.9435   4.0445   4.3083

          k = 0.3750 0.4137 0.1091 ( 22055 PWs)   bands (ev):

   -35.5253 -35.5181 -35.4968 -35.4900 -16.0178 -16.0075 -15.9892 -15.9385
   -15.9186 -15.9031 -15.8774 -15.8719 -15.8553 -15.8395 -15.8225 -15.8166
     0.8922   1.6590   2.5209   2.9107   3.2450   3.4506   3.8049   3.9766

          k = 0.3750 0.4137 0.3272 ( 22051 PWs)   bands (ev):

   -35.5245 -35.5181 -35.4975 -35.4901 -16.0152 -16.0006 -15.9874 -15.9598
   -15.9030 -15.8967 -15.8739 -15.8706 -15.8617 -15.8493 -15.8223 -15.8177
     1.2119   1.7319   2.0219   2.4259   3.5839   3.6814   3.8025   3.9464

          k = 0.3750 0.6895 0.1091 ( 22075 PWs)   bands (ev):

   -35.5187 -35.5124 -35.4922 -35.4847 -16.0267 -16.0192 -16.0133 -15.9985
   -15.9428 -15.9241 -15.9160 -15.9008 -15.8556 -15.8403 -15.8284 -15.8178
     1.8481   2.3672   2.8762   2.9370   3.1075   3.1844   3.3773   3.4602

          k = 0.3750 0.6895 0.3272 ( 22061 PWs)   bands (ev):

   -35.5186 -35.5123 -35.4923 -35.4847 -16.0423 -16.0360 -16.0185 -16.0092
   -15.9240 -15.9133 -15.9005 -15.8919 -15.8539 -15.8462 -15.8257 -15.8207
     2.0782   2.4099   2.6676   2.8769   3.0328   3.1264   3.3429   3.3954

          k = 0.1250-0.1379-0.1091 ( 22044 PWs)   bands (ev):

   -35.5381 -35.5195 -35.5034 -35.4916 -16.0610 -16.0011 -15.9790 -15.9221
   -15.8880 -15.8629 -15.8571 -15.8319 -15.8175 -15.8060 -15.8006 -15.7980
    -0.1789   1.8263   2.3195   2.7755   3.2744   3.4766   3.7467   4.3809

          k = 0.1250-0.1379-0.3272 ( 22050 PWs)   bands (ev):

   -35.5357 -35.5215 -35.5044 -35.4911 -16.0411 -16.0059 -15.9476 -15.9222
   -15.8973 -15.8739 -15.8542 -15.8383 -15.8289 -15.8129 -15.8072 -15.7979
     0.2191   0.9399   2.5289   2.8663   3.4214   3.4357   4.0113   4.3525

          k = 0.1250-0.4137-0.1091 ( 22086 PWs)   bands (ev):

   -35.5307 -35.5140 -35.4995 -35.4864 -16.0358 -15.9765 -15.9715 -15.9361
   -15.9156 -15.9060 -15.8981 -15.8786 -15.8667 -15.8525 -15.8115 -15.8078
     0.4428   2.1711   2.5809   2.9092   3.3091   3.4405   3.5578   4.0383

          k = 0.1250-0.4137-0.3272 ( 22073 PWs)   bands (ev):

   -35.5293 -35.5151 -35.5001 -35.4860 -16.0218 -15.9939 -15.9547 -15.9377
   -15.9296 -15.9172 -15.8914 -15.8757 -15.8570 -15.8425 -15.8217 -15.8137
     0.7968   1.4307   2.7289   2.9736   3.3641   3.3876   3.7392   3.9951

          k = 0.1250-0.6895-0.1091 ( 22100 PWs)   bands (ev):

   -35.5230 -35.5083 -35.4958 -35.4810 -16.0205 -16.0123 -15.9953 -15.9820
   -15.9524 -15.9432 -15.9246 -15.8884 -15.8690 -15.8475 -15.8292 -15.8184
     1.5153   2.6789   2.7089   2.9352   3.0772   3.2521   3.3831   3.5038

          k = 0.1250-0.6895-0.3272 ( 22077 PWs)   bands (ev):

   -35.5228 -35.5084 -35.4959 -35.4809 -16.0366 -16.0262 -15.9895 -15.9759
   -15.9655 -15.9518 -15.9079 -15.8871 -15.8537 -15.8428 -15.8237 -15.8210
     1.7819   2.2402   2.8556   2.9591   3.0991   3.1874   3.3262   3.3909

          k = 0.3750-0.1379-0.1091 ( 22079 PWs)   bands (ev):

   -35.5319 -35.5239 -35.5017 -35.4954 -16.0378 -16.0306 -15.9929 -15.9080
   -15.8661 -15.8565 -15.8478 -15.8358 -15.8282 -15.8125 -15.8085 -15.8024
     0.3292   1.2155   2.2238   2.7656   3.0992   3.4462   4.1181   4.4303

          k = 0.3750-0.1379-0.3272 ( 22022 PWs)   bands (ev):

   -35.5304 -35.5239 -35.5028 -35.4955 -16.0200 -16.0044 -15.9833 -15.9359
   -15.8772 -15.8668 -15.8463 -15.8362 -15.8238 -15.8195 -15.8116 -15.8040
     0.6944   1.3001   1.6226   2.1171   3.7211   3.9313   4.0490   4.3076

          k = 0.3750-0.4137-0.1091 ( 22055 PWs)   bands (ev):

   -35.5253 -35.5181 -35.4969 -35.4900 -16.0172 -16.0083 -15.9892 -15.9384
   -15.9184 -15.9028 -15.8788 -15.8708 -15.8560 -15.8387 -15.8222 -15.8171
     0.8924   1.6586   2.5239   2.9001   3.2582   3.4460   3.8044   3.9762

          k = 0.3750-0.4137-0.3272 ( 22051 PWs)   bands (ev):

   -35.5245 -35.5181 -35.4975 -35.4901 -16.0146 -16.0014 -15.9877 -15.9593
   -15.9027 -15.8965 -15.8750 -15.8707 -15.8616 -15.8486 -15.8212 -15.8188
     1.2127   1.7289   2.0264   2.4225   3.5926   3.6716   3.8065   3.9446

          k = 0.3750-0.6895-0.1091 ( 22075 PWs)   bands (ev):

   -35.5187 -35.5124 -35.4922 -35.4847 -16.0266 -16.0193 -16.0136 -15.9982
   -15.9419 -15.9247 -15.9163 -15.9007 -15.8561 -15.8398 -15.8288 -15.8175
     1.8480   2.3673   2.8769   2.9381   3.1085   3.1803   3.3768   3.4620

          k = 0.3750-0.6895-0.3272 ( 22061 PWs)   bands (ev):

   -35.5186 -35.5123 -35.4923 -35.4847 -16.0422 -16.0362 -16.0187 -16.0090
   -15.9229 -15.9138 -15.9014 -15.8915 -15.8549 -15.8450 -15.8265 -15.8200
     2.0780   2.4093   2.6720   2.8732   3.0311   3.1275   3.3433   3.3955

!    total energy              =    -303.19878176 Ry
     Harris-Foulkes estimate   =    -303.19878137 Ry
     estimated scf accuracy    <       0.00000037 Ry

     The total energy is the sum of the following terms:

     one-electron contribution =    -122.16494191 Ry
     hartree contribution      =      68.50573643 Ry
     xc contribution           =     -46.77286363 Ry
     ewald contribution        =    -202.76671265 Ry

     convergence has been achieved in   9 iterations

     Forces acting on atoms (Ry/au):

     atom    1 type  2   force =    -0.00108801    0.00000000   -0.00075751
     atom    2 type  2   force =     0.00084106    0.00000000   -0.00178645
     atom    3 type  2   force =    -0.00073453    0.00000000   -0.00017612
     atom    4 type  2   force =     0.00085143    0.00000000    0.00125143
     atom    5 type  1   force =     0.00026170    0.00000000    0.00107056
     atom    6 type  1   force =    -0.00051019    0.00000000    0.00040757
     atom    7 type  1   force =     0.00049251    0.00000000   -0.00071537
     atom    8 type  1   force =    -0.00066422    0.00000000    0.00258858
     atom    9 type  1   force =    -0.00091238    0.00000000   -0.00282808
     atom   10 type  1   force =     0.00075473    0.00000000   -0.00292821
     atom   11 type  1   force =    -0.00029727    0.00000000    0.00094159
     atom   12 type  1   force =     0.00100517    0.00000000    0.00293203

     Total force =     0.006827     Total SCF correction =     0.002152
     SCF correction compared to forces is large: reduce conv_thr to get better values


     entering subroutine stress ...

          total   stress  (Ry/bohr**3)                   (kbar)     P=   -7.39
  -0.00004492   0.00000000   0.00000007         -6.61      0.00      0.01
   0.00000000  -0.00005786   0.00000000          0.00     -8.51      0.00
   0.00000007   0.00000000  -0.00004785          0.01      0.00     -7.04


     BFGS Geometry Optimization

     number of scf cycles    =   1
     number of bfgs steps    =   0

     enthalpy new            =    -303.1987817581 Ry

     new trust radius        =       0.0091214960 bohr
     new conv_thr            =       0.0000010000 Ry

     new unit-cell volume =    990.29050 a.u.^3 (   146.74591 Ang^3 )

CELL_PARAMETERS (alat= 11.28030000)
   0.998876959   0.000000000   0.000001858
   0.000000000   0.603425844   0.000000000
   0.000002129   0.000000000   1.144629048

ATOMIC_POSITIONS (crystal)
Ca       0.239903548   0.250000000   0.109841402    1   0   1
Ca       0.260074560  -0.250000000   0.609761807    1   0   1
Ca       0.739934884   0.250000000   0.390086376    1   0   1
Ca      -0.239924521  -0.250000000  -0.109803194    1   0   1
H        0.355723200   0.250000000   0.426582814    1   0   1
H        0.144254772  -0.250000000   0.926531528    1   0   1
H        0.855743661   0.250000000   0.073444662    1   0   1
H       -0.355758883  -0.250000000  -0.429299758    1   0   1
H        0.975319117   0.250000000   0.676281230    1   0   1
H       -0.475333093  -0.250000000   1.176273485    1   0   1
H        1.475373647   0.250000000  -0.173427162    1   0   1
H       -0.975310892  -0.250000000  -0.676273190    1   0   1



     Writing output data file CaH2_ambient.save
     NEW-OLD atomic charge density approx. for the potential
     NEW k-points:
        k(    1) = (   0.1251403   0.1381004   0.1092055), wk =   0.0833333
        k(    2) = (   0.1251399   0.1381004   0.3276168), wk =   0.0833333
        k(    3) = (   0.1251403   0.4143011   0.1092055), wk =   0.0833333
        k(    4) = (   0.1251399   0.4143011   0.3276168), wk =   0.0833333
        k(    5) = (   0.1251403   0.6905019   0.1092055), wk =   0.0833333
        k(    6) = (   0.1251399   0.6905019   0.3276168), wk =   0.0833333
        k(    7) = (   0.3754214   0.1381004   0.1092050), wk =   0.0833333
        k(    8) = (   0.3754210   0.1381004   0.3276164), wk =   0.0833333
        k(    9) = (   0.3754214   0.4143011   0.1092050), wk =   0.0833333
        k(   10) = (   0.3754210   0.4143011   0.3276164), wk =   0.0833333
        k(   11) = (   0.3754214   0.6905019   0.1092050), wk =   0.0833333
        k(   12) = (   0.3754210   0.6905019   0.3276164), wk =   0.0833333
        k(   13) = (   0.1251407  -0.1381004  -0.1092059), wk =   0.0833333
        k(   14) = (   0.1251411  -0.1381004  -0.3276173), wk =   0.0833333
        k(   15) = (   0.1251407  -0.4143011  -0.1092059), wk =   0.0833333
        k(   16) = (   0.1251411  -0.4143011  -0.3276173), wk =   0.0833333
        k(   17) = (   0.1251407  -0.6905019  -0.1092059), wk =   0.0833333
        k(   18) = (   0.1251411  -0.6905019  -0.3276173), wk =   0.0833333
        k(   19) = (   0.3754218  -0.1381004  -0.1092064), wk =   0.0833333
        k(   20) = (   0.3754222  -0.1381004  -0.3276178), wk =   0.0833333
        k(   21) = (   0.3754218  -0.4143011  -0.1092064), wk =   0.0833333
        k(   22) = (   0.3754222  -0.4143011  -0.3276178), wk =   0.0833333
        k(   23) = (   0.3754218  -0.6905019  -0.1092064), wk =   0.0833333
        k(   24) = (   0.3754222  -0.6905019  -0.3276178), wk =   0.0833333
     extrapolated charge   47.81886, renormalised to   48.00000

     total cpu time spent up to now is     1275.6 secs

     per-process dynamical memory:   139.8 Mb

     Self-consistent Calculation

     iteration #  1     ecut=   120.00 Ry     beta=0.30
     Davidson diagonalization with overlap
     ethr =  1.00E-06,  avg # of iterations =  4.2

     total cpu time spent up to now is     1408.6 secs

     total energy              =    -303.19796353 Ry
     Harris-Foulkes estimate   =    -303.48608893 Ry
     estimated scf accuracy    <       0.00066792 Ry

     iteration #  2     ecut=   120.00 Ry     beta=0.30
     Davidson diagonalization with overlap
     ethr =  1.39E-06,  avg # of iterations =  3.4

     total cpu time spent up to now is     1521.9 secs

     total energy              =    -303.19885073 Ry
     Harris-Foulkes estimate   =    -303.19873783 Ry
     estimated scf accuracy    <       0.00002413 Ry

     iteration #  3     ecut=   120.00 Ry     beta=0.30
     Davidson diagonalization with overlap
     ethr =  5.03E-08,  avg # of iterations =  2.7

     total cpu time spent up to now is     1599.0 secs

     total energy              =    -303.19898749 Ry
     Harris-Foulkes estimate   =    -303.19885248 Ry
     estimated scf accuracy    <       0.00001565 Ry

     iteration #  4     ecut=   120.00 Ry     beta=0.30
     Davidson diagonalization with overlap
     ethr =  3.26E-08,  avg # of iterations =  2.0

     total cpu time spent up to now is     1686.4 secs

     total energy              =    -303.19899034 Ry
     Harris-Foulkes estimate   =    -303.19898889 Ry
     estimated scf accuracy    <       0.00000181 Ry

     iteration #  5     ecut=   120.00 Ry     beta=0.30
     Davidson diagonalization with overlap
     ethr =  3.77E-09,  avg # of iterations =  3.0

     total cpu time spent up to now is     1770.7 secs

     End of self-consistent calculation

          k = 0.1251 0.1381 0.1092 ( 22044 PWs)   bands (ev):

   -35.4921 -35.4730 -35.4576 -35.4463 -16.0179 -15.9583 -15.9347 -15.8762
   -15.8434 -15.8174 -15.8119 -15.7858 -15.7724 -15.7597 -15.7546 -15.7518
    -0.1595   1.8545   2.3401   2.8087   3.2931   3.5075   3.7712   4.4098

          k = 0.1251 0.1381 0.3276 ( 22050 PWs)   bands (ev):

   -35.4895 -35.4752 -35.4587 -35.4457 -15.9974 -15.9632 -15.9022 -15.8769
   -15.8529 -15.8294 -15.8084 -15.7930 -15.7834 -15.7661 -15.7608 -15.7525
     0.2396   0.9643   2.5513   2.8997   3.4442   3.4606   4.0378   4.3830

          k = 0.1251 0.4143 0.1092 ( 22086 PWs)   bands (ev):

   -35.4844 -35.4674 -35.4537 -35.4409 -15.9921 -15.9336 -15.9269 -15.8911
   -15.8705 -15.8619 -15.8528 -15.8328 -15.8222 -15.8079 -15.7667 -15.7607
     0.4647   2.1990   2.6026   2.9415   3.3325   3.4686   3.5826   4.0655

          k = 0.1251 0.4143 0.3276 ( 22073 PWs)   bands (ev):

   -35.4829 -35.4686 -35.4543 -35.4405 -15.9776 -15.9510 -15.9099 -15.8937
   -15.8848 -15.8723 -15.8469 -15.8308 -15.8105 -15.7983 -15.7772 -15.7665
     0.8195   1.4560   2.7509   3.0074   3.3966   3.4029   3.7665   4.0230

          k = 0.1251 0.6905 0.1092 ( 22100 PWs)   bands (ev):

   -35.4766 -35.4615 -35.4501 -35.4354 -15.9773 -15.9683 -15.9513 -15.9396
   -15.9085 -15.8993 -15.8788 -15.8437 -15.8230 -15.8023 -15.7835 -15.7730
     1.5408   2.7061   2.7376   2.9606   3.1025   3.2800   3.4064   3.5289

          k = 0.1251 0.6905 0.3276 ( 22077 PWs)   bands (ev):

   -35.4763 -35.4617 -35.4502 -35.4353 -15.9937 -15.9830 -15.9455 -15.9326
   -15.9215 -15.9077 -15.8625 -15.8425 -15.8064 -15.7984 -15.7781 -15.7756
     1.8078   2.2667   2.8838   2.9850   3.1246   3.2162   3.3466   3.4174

          k = 0.3754 0.1381 0.1092 ( 22079 PWs)   bands (ev):

   -35.4858 -35.4774 -35.4559 -35.4502 -15.9959 -15.9861 -15.9491 -15.8631
   -15.8197 -15.8111 -15.8025 -15.7895 -15.7834 -15.7664 -15.7619 -15.7575
     0.3501   1.2401   2.2496   2.8000   3.1112   3.4783   4.1456   4.4574

          k = 0.3754 0.1381 0.3276 ( 22022 PWs)   bands (ev):

   -35.4842 -35.4774 -35.4570 -35.4503 -15.9775 -15.9591 -15.9394 -15.8922
   -15.8308 -15.8221 -15.8005 -15.7900 -15.7793 -15.7726 -15.7653 -15.7590
     0.7155   1.3297   1.6427   2.1439   3.7390   3.9700   4.0716   4.3357

          k = 0.3754 0.4143 0.1092 ( 22055 PWs)   bands (ev):

   -35.4790 -35.4715 -35.4510 -35.4447 -15.9742 -15.9640 -15.9454 -15.8939
   -15.8743 -15.8580 -15.8328 -15.8264 -15.8098 -15.7935 -15.7771 -15.7711
     0.9155   1.6842   2.5474   2.9377   3.2713   3.4776   3.8310   4.0029

          k = 0.3754 0.4143 0.3276 ( 22051 PWs)   bands (ev):

   -35.4781 -35.4715 -35.4517 -35.4448 -15.9715 -15.9571 -15.9437 -15.9157
   -15.8581 -15.8516 -15.8289 -15.8251 -15.8165 -15.8038 -15.7766 -15.7723
     1.2362   1.7579   2.0468   2.4518   3.6103   3.7079   3.8293   3.9730

          k = 0.3754 0.6905 0.1092 ( 22075 PWs)   bands (ev):

   -35.4722 -35.4656 -35.4463 -35.4394 -15.9836 -15.9759 -15.9698 -15.9553
   -15.8984 -15.8794 -15.8714 -15.8558 -15.8098 -15.7942 -15.7832 -15.7724
     1.8742   2.3939   2.9048   2.9647   3.1335   3.2091   3.4022   3.4855

          k = 0.3754 0.6905 0.3276 ( 22061 PWs)   bands (ev):

   -35.4721 -35.4656 -35.4464 -35.4393 -15.9994 -15.9931 -15.9753 -15.9661
   -15.8791 -15.8685 -15.8555 -15.8469 -15.8082 -15.8001 -15.7805 -15.7753
     2.1045   2.4368   2.6936   2.9040   3.0585   3.1528   3.3683   3.4210

          k = 0.1251-0.1381-0.1092 ( 22044 PWs)   bands (ev):

   -35.4921 -35.4730 -35.4577 -35.4463 -16.0180 -15.9576 -15.9352 -15.8774
   -15.8424 -15.8173 -15.8119 -15.7856 -15.7717 -15.7599 -15.7548 -15.7523
    -0.1593   1.8523   2.3446   2.8030   3.3001   3.5027   3.7735   4.4084

          k = 0.1251-0.1381-0.3276 ( 22050 PWs)   bands (ev):

   -35.4895 -35.4752 -35.4587 -35.4457 -15.9976 -15.9623 -15.9032 -15.8777
   -15.8524 -15.8287 -15.8084 -15.7923 -15.7833 -15.7668 -15.7611 -15.7524
     0.2401   0.9633   2.5548   2.8934   3.4481   3.4609   4.0390   4.3806

          k = 0.1251-0.4143-0.1092 ( 22086 PWs)   bands (ev):

   -35.4845 -35.4674 -35.4537 -35.4409 -15.9922 -15.9325 -15.9276 -15.8915
   -15.8709 -15.8612 -15.8531 -15.8332 -15.8219 -15.8074 -15.7657 -15.7618
     0.4648   2.1979   2.6066   2.9360   3.3347   3.4675   3.5846   4.0648

          k = 0.1251-0.4143-0.3276 ( 22073 PWs)   bands (ev):

   -35.4829 -35.4686 -35.4543 -35.4405 -15.9779 -15.9503 -15.9104 -15.8935
   -15.8851 -15.8723 -15.8468 -15.8307 -15.8117 -15.7968 -15.7763 -15.7678
     0.8198   1.4555   2.7550   3.0004   3.3904   3.4126   3.7670   4.0222

          k = 0.1251-0.6905-0.1092 ( 22100 PWs)   bands (ev):

   -35.4766 -35.4615 -35.4501 -35.4354 -15.9772 -15.9685 -15.9519 -15.9388
   -15.9084 -15.8986 -15.8798 -15.8435 -15.8236 -15.8017 -15.7838 -15.7729
     1.5408   2.7063   2.7375   2.9614   3.1035   3.2768   3.4075   3.5291

          k = 0.1251-0.6905-0.3276 ( 22077 PWs)   bands (ev):

   -35.4763 -35.4617 -35.4502 -35.4353 -15.9936 -15.9832 -15.9457 -15.9321
   -15.9213 -15.9077 -15.8629 -15.8424 -15.8078 -15.7970 -15.7782 -15.7756
     1.8078   2.2668   2.8841   2.9864   3.1246   3.2121   3.3506   3.4156

          k = 0.3754-0.1381-0.1092 ( 22079 PWs)   bands (ev):

   -35.4858 -35.4774 -35.4559 -35.4502 -15.9948 -15.9873 -15.9491 -15.8628
   -15.8205 -15.8108 -15.8020 -15.7895 -15.7829 -15.7667 -15.7624 -15.7571
     0.3505   1.2395   2.2494   2.7933   3.1244   3.4729   4.1446   4.4575

          k = 0.3754-0.1381-0.3276 ( 22022 PWs)   bands (ev):

   -35.4842 -35.4774 -35.4571 -35.4503 -15.9764 -15.9604 -15.9399 -15.8913
   -15.8319 -15.8213 -15.8003 -15.7900 -15.7783 -15.7736 -15.7656 -15.7589
     0.7169   1.3252   1.6462   2.1428   3.7475   3.9586   4.0756   4.3351

          k = 0.3754-0.4143-0.1092 ( 22055 PWs)   bands (ev):

   -35.4790 -35.4715 -35.4510 -35.4447 -15.9736 -15.9647 -15.9455 -15.8938
   -15.8741 -15.8577 -15.8337 -15.8259 -15.8103 -15.7929 -15.7768 -15.7715
     0.9157   1.6840   2.5500   2.9277   3.2839   3.4731   3.8305   4.0026

          k = 0.3754-0.4143-0.3276 ( 22051 PWs)   bands (ev):

   -35.4782 -35.4715 -35.4517 -35.4448 -15.9709 -15.9577 -15.9441 -15.9152
   -15.8579 -15.8512 -15.8297 -15.8255 -15.8164 -15.8032 -15.7757 -15.7732
     1.2368   1.7552   2.0509   2.4487   3.6186   3.6988   3.8328   3.9715

          k = 0.3754-0.6905-0.1092 ( 22075 PWs)   bands (ev):

   -35.4722 -35.4656 -35.4463 -35.4394 -15.9835 -15.9760 -15.9702 -15.9550
   -15.8974 -15.8802 -15.8714 -15.8559 -15.8101 -15.7937 -15.7836 -15.7722
     1.8741   2.3942   2.9054   2.9656   3.1345   3.2052   3.4017   3.4870

          k = 0.3754-0.6905-0.3276 ( 22061 PWs)   bands (ev):

   -35.4721 -35.4656 -35.4464 -35.4393 -15.9993 -15.9932 -15.9754 -15.9659
   -15.8780 -15.8690 -15.8564 -15.8466 -15.8091 -15.7992 -15.7811 -15.7748
     2.1042   2.4365   2.6976   2.9005   3.0569   3.1539   3.3690   3.4208

!    total energy              =    -303.19899039 Ry
     Harris-Foulkes estimate   =    -303.19899069 Ry
     estimated scf accuracy    <       0.00000040 Ry

     The total energy is the sum of the following terms:

     one-electron contribution =    -121.78257011 Ry
     hartree contribution      =      68.38546076 Ry
     xc contribution           =     -46.78331455 Ry
     ewald contribution        =    -203.01856649 Ry

     convergence has been achieved in   5 iterations

     Forces acting on atoms (Ry/au):

     atom    1 type  2   force =    -0.00076239    0.00000000   -0.00053469
     atom    2 type  2   force =     0.00055730    0.00000000   -0.00122554
     atom    3 type  2   force =    -0.00047921    0.00000000   -0.00019559
     atom    4 type  2   force =     0.00052984    0.00000000    0.00072576
     atom    5 type  1   force =     0.00026033    0.00000000    0.00090590
     atom    6 type  1   force =    -0.00047826    0.00000000    0.00029466
     atom    7 type  1   force =     0.00047367    0.00000000   -0.00062296
     atom    8 type  1   force =    -0.00061894    0.00000000    0.00248829
     atom    9 type  1   force =    -0.00085928    0.00000000   -0.00265701
     atom   10 type  1   force =     0.00072597    0.00000000   -0.00270427
     atom   11 type  1   force =    -0.00029049    0.00000000    0.00081454
     atom   12 type  1   force =     0.00094145    0.00000000    0.00271089

     Total force =     0.006064     Total SCF correction =     0.000775
     SCF correction compared to forces is large: reduce conv_thr to get better values


     entering subroutine stress ...

          total   stress  (Ry/bohr**3)                   (kbar)     P=   -5.95
  -0.00003645   0.00000000  -0.00000003         -5.36      0.00     -0.00
   0.00000000  -0.00004638   0.00000000          0.00     -6.82      0.00
  -0.00000003   0.00000000  -0.00003858         -0.00      0.00     -5.67


     number of scf cycles    =   2
     number of bfgs steps    =   1

     enthalpy old            =    -303.1987817581 Ry
     enthalpy new            =    -303.1989903885 Ry

     CASE: enthalpy_new < enthalpy_old


     WARNING: bfgs curvature condition failed, Theta= 0.977
     new trust radius        =       0.0136762725 bohr
     new conv_thr            =       0.0000000209 Ry

     new unit-cell volume =    984.67137 a.u.^3 (   145.91324 Ang^3 )

CELL_PARAMETERS (alat= 11.28030000)
   0.997173000   0.000000000   0.000000590
   0.000000000   0.602114609   0.000000000
   0.000000676   0.000000000   1.142561764

ATOMIC_POSITIONS (crystal)
Ca       0.239776161   0.250000000   0.109763476    1   0   1
Ca       0.260167933  -0.250000000   0.609582952    1   0   1
Ca       0.739854532   0.250000000   0.390058360    1   0   1
Ca      -0.239835460  -0.250000000  -0.109696340    1   0   1
H        0.355766089   0.250000000   0.426713811    1   0   1
H        0.144175817  -0.250000000   0.926574425    1   0   1
H        0.855821787   0.250000000   0.073354681    1   0   1
H       -0.355861083  -0.250000000  -0.428941649    1   0   1
H        0.975177283   0.250000000   0.675898530    1   0   1
H       -0.475213354  -0.250000000   1.175883737    1   0   1
H        1.475325761   0.250000000  -0.173309479    1   0   1
H       -0.975155464  -0.250000000  -0.675882503    1   0   1



     Writing output data file CaH2_ambient.save
     NEW-OLD atomic charge density approx. for the potential
     NEW k-points:
        k(    1) = (   0.1253543   0.1384011   0.1094032), wk =   0.0833333
        k(    2) = (   0.1253542   0.1384011   0.3282098), wk =   0.0833333
        k(    3) = (   0.1253543   0.4152033   0.1094032), wk =   0.0833333
        k(    4) = (   0.1253542   0.4152033   0.3282098), wk =   0.0833333
        k(    5) = (   0.1253543   0.6920056   0.1094032), wk =   0.0833333
        k(    6) = (   0.1253542   0.6920056   0.3282098), wk =   0.0833333
        k(    7) = (   0.3760631   0.1384011   0.1094031), wk =   0.0833333
        k(    8) = (   0.3760629   0.1384011   0.3282096), wk =   0.0833333
        k(    9) = (   0.3760631   0.4152033   0.1094031), wk =   0.0833333
        k(   10) = (   0.3760629   0.4152033   0.3282096), wk =   0.0833333
        k(   11) = (   0.3760631   0.6920056   0.1094031), wk =   0.0833333
        k(   12) = (   0.3760629   0.6920056   0.3282096), wk =   0.0833333
        k(   13) = (   0.1253544  -0.1384011  -0.1094034), wk =   0.0833333
        k(   14) = (   0.1253546  -0.1384011  -0.3282099), wk =   0.0833333
        k(   15) = (   0.1253544  -0.4152033  -0.1094034), wk =   0.0833333
        k(   16) = (   0.1253546  -0.4152033  -0.3282099), wk =   0.0833333
        k(   17) = (   0.1253544  -0.6920056  -0.1094034), wk =   0.0833333
        k(   18) = (   0.1253546  -0.6920056  -0.3282099), wk =   0.0833333
        k(   19) = (   0.3760632  -0.1384011  -0.1094035), wk =   0.0833333
        k(   20) = (   0.3760633  -0.1384011  -0.3282101), wk =   0.0833333
        k(   21) = (   0.3760632  -0.4152033  -0.1094035), wk =   0.0833333
        k(   22) = (   0.3760633  -0.4152033  -0.3282101), wk =   0.0833333
        k(   23) = (   0.3760632  -0.6920056  -0.1094035), wk =   0.0833333
        k(   24) = (   0.3760633  -0.6920056  -0.3282101), wk =   0.0833333
     extrapolated charge   47.72621, renormalised to   48.00000

     total cpu time spent up to now is     2080.2 secs

     per-process dynamical memory:   139.8 Mb

     Self-consistent Calculation

     iteration #  1     ecut=   120.00 Ry     beta=0.30
     Davidson diagonalization with overlap
     ethr =  1.00E-06,  avg # of iterations =  4.1

     total cpu time spent up to now is     2228.1 secs

     total energy              =    -303.19686340 Ry
     Harris-Foulkes estimate   =    -303.63044141 Ry
     estimated scf accuracy    <       0.00155485 Ry

     iteration #  2     ecut=   120.00 Ry     beta=0.30
     Davidson diagonalization with overlap
     ethr =  3.24E-06,  avg # of iterations =  3.5

     total cpu time spent up to now is     2343.9 secs

     total energy              =    -303.19888269 Ry
     Harris-Foulkes estimate   =    -303.19861512 Ry
     estimated scf accuracy    <       0.00004815 Ry

     iteration #  3     ecut=   120.00 Ry     beta=0.30
     Davidson diagonalization with overlap
     ethr =  1.00E-07,  avg # of iterations =  2.8

     total cpu time spent up to now is     2421.5 secs

     total energy              =    -303.19920592 Ry
     Harris-Foulkes estimate   =    -303.19888631 Ry
     estimated scf accuracy    <       0.00003151 Ry

     iteration #  4     ecut=   120.00 Ry     beta=0.30
     Davidson diagonalization with overlap
     ethr =  6.57E-08,  avg # of iterations =  2.0

     total cpu time spent up to now is     2507.6 secs

     total energy              =    -303.19920980 Ry
     Harris-Foulkes estimate   =    -303.19920885 Ry
     estimated scf accuracy    <       0.00000274 Ry

     iteration #  5     ecut=   120.00 Ry     beta=0.30
     Davidson diagonalization with overlap
     ethr =  5.72E-09,  avg # of iterations =  3.0

     total cpu time spent up to now is     2594.2 secs

     total energy              =    -303.19920759 Ry
     Harris-Foulkes estimate   =    -303.19921040 Ry
     estimated scf accuracy    <       0.00000064 Ry

     iteration #  6     ecut=   120.00 Ry     beta=0.30
     Davidson diagonalization with overlap
     ethr =  1.33E-09,  avg # of iterations =  2.7

     total cpu time spent up to now is     2698.6 secs

     total energy              =    -303.19920953 Ry
     Harris-Foulkes estimate   =    -303.19920774 Ry
     estimated scf accuracy    <       0.00000013 Ry

     iteration #  7     ecut=   120.00 Ry     beta=0.30
     Davidson diagonalization with overlap
     ethr =  2.71E-10,  avg # of iterations =  2.0

     total cpu time spent up to now is     2788.5 secs

     End of self-consistent calculation

          k = 0.1254 0.1384 0.1094 ( 22044 PWs)   bands (ev):

   -35.4265 -35.4062 -35.3959 -35.3858 -15.9576 -15.8975 -15.8737 -15.8136
   -15.7797 -15.7529 -15.7486 -15.7194 -15.7087 -15.6973 -15.6919 -15.6883
    -0.1300   1.8932   2.3786   2.8493   3.3328   3.5462   3.8121   4.4504

          k = 0.1254 0.1384 0.3282 ( 22050 PWs)   bands (ev):

   -35.4233 -35.4098 -35.3964 -35.3850 -15.9361 -15.9028 -15.8398 -15.8143
   -15.7910 -15.7660 -15.7431 -15.7286 -15.7190 -15.7024 -15.6975 -15.6907
     0.2712   0.9993   2.5907   2.9400   3.4848   3.4983   4.0798   4.4248

          k = 0.1254 0.4152 0.1094 ( 22086 PWs)   bands (ev):

   -35.4183 -35.4003 -35.3922 -35.3803 -15.9310 -15.8723 -15.8654 -15.8277
   -15.8081 -15.7993 -15.7897 -15.7700 -15.7611 -15.7446 -15.7031 -15.6972
     0.4978   2.2389   2.6421   2.9810   3.3713   3.5089   3.6237   4.1049

          k = 0.1254 0.4152 0.3282 ( 22073 PWs)   bands (ev):

   -35.4163 -35.4026 -35.3923 -35.3798 -15.9156 -15.8906 -15.8477 -15.8313
   -15.8227 -15.8084 -15.7858 -15.7684 -15.7481 -15.7336 -15.7144 -15.7034
     0.8542   1.4932   2.7906   3.0470   3.4367   3.4402   3.8085   4.0638

          k = 0.1254 0.6920 0.1094 ( 22100 PWs)   bands (ev):

   -35.4096 -35.3942 -35.3892 -35.3746 -15.9159 -15.9072 -15.8899 -15.8800
   -15.8481 -15.8376 -15.8157 -15.7820 -15.7592 -15.7365 -15.7212 -15.7111
     1.5792   2.7467   2.7805   3.0003   3.1418   3.3171   3.4435   3.5670

          k = 0.1254 0.6920 0.3282 ( 22077 PWs)   bands (ev):

   -35.4092 -35.3946 -35.3891 -35.3745 -15.9327 -15.9239 -15.8828 -15.8719
   -15.8595 -15.8480 -15.7986 -15.7816 -15.7413 -15.7324 -15.7162 -15.7140
     1.8467   2.3064   2.9266   3.0260   3.1630   3.2530   3.3837   3.4547

          k = 0.3761 0.1384 0.1094 ( 22079 PWs)   bands (ev):

   -35.4197 -35.4107 -35.3945 -35.3899 -15.9355 -15.9256 -15.8883 -15.7998
   -15.7558 -15.7464 -15.7374 -15.7232 -15.7211 -15.7033 -15.6994 -15.6956
     0.3823   1.2762   2.2884   2.8408   3.1506   3.5180   4.1854   4.4978

          k = 0.3761 0.1384 0.3282 ( 22022 PWs)   bands (ev):

   -35.4176 -35.4107 -35.3960 -35.3900 -15.9161 -15.8970 -15.8798 -15.8303
   -15.7669 -15.7583 -15.7349 -15.7239 -15.7159 -15.7094 -15.7030 -15.6979
     0.7496   1.3668   1.6790   2.1824   3.7793   4.0094   4.1125   4.3767

          k = 0.3761 0.4152 0.1094 ( 22055 PWs)   bands (ev):

   -35.4125 -35.4044 -35.3897 -35.3843 -15.9128 -15.9030 -15.8847 -15.8303
   -15.8133 -15.7937 -15.7718 -15.7634 -15.7459 -15.7280 -15.7156 -15.7084
     0.9506   1.7223   2.5872   2.9781   3.3112   3.5181   3.8702   4.0422

          k = 0.3761 0.4152 0.3282 ( 22051 PWs)   bands (ev):

   -35.4113 -35.4045 -35.3907 -35.3844 -15.9097 -15.8963 -15.8827 -15.8540
   -15.7953 -15.7876 -15.7669 -15.7617 -15.7538 -15.7400 -15.7138 -15.7096
     1.2727   1.7968   2.0845   2.4909   3.6501   3.7473   3.8698   4.0131

          k = 0.3761 0.6920 0.1094 ( 22075 PWs)   bands (ev):

   -35.4051 -35.3983 -35.3852 -35.3788 -15.9229 -15.9155 -15.9082 -15.8958
   -15.8363 -15.8175 -15.8097 -15.7937 -15.7441 -15.7277 -15.7219 -15.7112
     1.9134   2.4341   2.9478   3.0058   3.1726   3.2467   3.4394   3.5233

          k = 0.3761 0.6920 0.3282 ( 22061 PWs)   bands (ev):

   -35.4049 -35.3982 -35.3854 -35.3788 -15.9391 -15.9335 -15.9141 -15.9064
   -15.8162 -15.8067 -15.7928 -15.7848 -15.7429 -15.7342 -15.7188 -15.7140
     2.1440   2.4772   2.7329   2.9446   3.0971   3.1923   3.4067   3.4594

          k = 0.1254-0.1384-0.1094 ( 22044 PWs)   bands (ev):

   -35.4265 -35.4062 -35.3959 -35.3858 -15.9577 -15.8968 -15.8742 -15.8147
   -15.7787 -15.7528 -15.7487 -15.7192 -15.7083 -15.6974 -15.6919 -15.6888
    -0.1299   1.8913   2.3823   2.8444   3.3390   3.5422   3.8139   4.4491

          k = 0.1254-0.1384-0.3282 ( 22050 PWs)   bands (ev):

   -35.4233 -35.4098 -35.3964 -35.3850 -15.9363 -15.9021 -15.8407 -15.8151
   -15.7905 -15.7652 -15.7432 -15.7277 -15.7193 -15.7029 -15.6978 -15.6907
     0.2717   0.9985   2.5939   2.9343   3.4889   3.4982   4.0808   4.4226

          k = 0.1254-0.4152-0.1094 ( 22086 PWs)   bands (ev):

   -35.4183 -35.4004 -35.3922 -35.3803 -15.9311 -15.8713 -15.8660 -15.8282
   -15.8083 -15.7991 -15.7899 -15.7702 -15.7608 -15.7443 -15.7024 -15.6981
     0.4979   2.2380   2.6454   2.9762   3.3732   3.5083   3.6252   4.1044

          k = 0.1254-0.4152-0.3282 ( 22073 PWs)   bands (ev):

   -35.4163 -35.4026 -35.3923 -35.3798 -15.9158 -15.8900 -15.8481 -15.8313
   -15.8230 -15.8083 -15.7858 -15.7683 -15.7489 -15.7323 -15.7139 -15.7043
     0.8545   1.4928   2.7943   3.0406   3.4303   3.4500   3.8088   4.0630

          k = 0.1254-0.6920-0.1094 ( 22100 PWs)   bands (ev):

   -35.4096 -35.3942 -35.3892 -35.3746 -15.9159 -15.9072 -15.8906 -15.8794
   -15.8481 -15.8368 -15.8165 -15.7819 -15.7596 -15.7361 -15.7213 -15.7110
     1.5792   2.7469   2.7804   3.0010   3.1426   3.3143   3.4444   3.5672

          k = 0.1254-0.6920-0.3282 ( 22077 PWs)   bands (ev):

   -35.4092 -35.3946 -35.3891 -35.3745 -15.9326 -15.9240 -15.8831 -15.8717
   -15.8592 -15.8478 -15.7990 -15.7814 -15.7424 -15.7313 -15.7160 -15.7143
     1.8466   2.3065   2.9268   3.0273   3.1628   3.2496   3.3873   3.4529

          k = 0.3761-0.1384-0.1094 ( 22079 PWs)   bands (ev):

   -35.4197 -35.4107 -35.3945 -35.3899 -15.9347 -15.9265 -15.8884 -15.7995
   -15.7563 -15.7462 -15.7369 -15.7233 -15.7209 -15.7035 -15.6999 -15.6953
     0.3826   1.2757   2.2881   2.8350   3.1623   3.5134   4.1843   4.4979

          k = 0.3761-0.1384-0.3282 ( 22022 PWs)   bands (ev):

   -35.4176 -35.4107 -35.3960 -35.3900 -15.9152 -15.8979 -15.8804 -15.8294
   -15.7680 -15.7574 -15.7347 -15.7241 -15.7152 -15.7101 -15.7032 -15.6977
     0.7508   1.3630   1.6819   2.1815   3.7869   3.9997   4.1154   4.3761

          k = 0.3761-0.4152-0.1094 ( 22055 PWs)   bands (ev):

   -35.4125 -35.4044 -35.3897 -35.3843 -15.9123 -15.9035 -15.8849 -15.8302
   -15.8131 -15.7935 -15.7720 -15.7636 -15.7462 -15.7276 -15.7153 -15.7087
     0.9508   1.7221   2.5895   2.9692   3.3227   3.5141   3.8696   4.0420

          k = 0.3761-0.4152-0.3282 ( 22051 PWs)   bands (ev):

   -35.4113 -35.4045 -35.3907 -35.3844 -15.9092 -15.8967 -15.8833 -15.8535
   -15.7952 -15.7871 -15.7672 -15.7623 -15.7538 -15.7395 -15.7132 -15.7103
     1.2732   1.7946   2.0879   2.4882   3.6575   3.7396   3.8724   4.0117

          k = 0.3761-0.6920-0.1094 ( 22075 PWs)   bands (ev):

   -35.4051 -35.3983 -35.3852 -35.3788 -15.9228 -15.9155 -15.9087 -15.8957
   -15.8354 -15.8183 -15.8094 -15.7940 -15.7444 -15.7273 -15.7221 -15.7111
     1.9133   2.4344   2.9483   3.0068   3.1734   3.2432   3.4391   3.5246

          k = 0.3761-0.6920-0.3282 ( 22061 PWs)   bands (ev):

   -35.4049 -35.3982 -35.3854 -35.3788 -15.9390 -15.9336 -15.9143 -15.9063
   -15.8152 -15.8071 -15.7935 -15.7846 -15.7436 -15.7334 -15.7193 -15.7136
     2.1437   2.4771   2.7363   2.9415   3.0958   3.1932   3.4075   3.4590

!    total energy              =    -303.19921020 Ry
     Harris-Foulkes estimate   =    -303.19920954 Ry
     estimated scf accuracy    <          7.0E-09 Ry

     The total energy is the sum of the following terms:

     one-electron contribution =    -121.21015014 Ry
     hartree contribution      =      68.21088506 Ry
     xc contribution           =     -46.80023312 Ry
     ewald contribution        =    -203.39971199 Ry

     convergence has been achieved in   7 iterations

     Forces acting on atoms (Ry/au):

     atom    1 type  2   force =    -0.00053637    0.00000000   -0.00031608
     atom    2 type  2   force =     0.00036596    0.00000000   -0.00069096
     atom    3 type  2   force =    -0.00040547    0.00000000   -0.00021143
     atom    4 type  2   force =     0.00034888    0.00000000    0.00034330
     atom    5 type  1   force =     0.00033185    0.00000000    0.00053708
     atom    6 type  1   force =    -0.00042853    0.00000000    0.00021878
     atom    7 type  1   force =     0.00047606    0.00000000   -0.00037605
     atom    8 type  1   force =    -0.00052542    0.00000000    0.00186767
     atom    9 type  1   force =    -0.00064359    0.00000000   -0.00195889
     atom   10 type  1   force =     0.00057394    0.00000000   -0.00189501
     atom   11 type  1   force =    -0.00025471    0.00000000    0.00054928
     atom   12 type  1   force =     0.00069740    0.00000000    0.00193232

     Total force =     0.004355     Total SCF correction =     0.000618
     SCF correction compared to forces is large: reduce conv_thr to get better values


     entering subroutine stress ...

          total   stress  (Ry/bohr**3)                   (kbar)     P=   -2.71
  -0.00001584   0.00000000   0.00000001         -2.33      0.00      0.00
   0.00000000  -0.00002226   0.00000000          0.00     -3.27      0.00
   0.00000001   0.00000000  -0.00001710          0.00      0.00     -2.52


     number of scf cycles    =   3
     number of bfgs steps    =   2

     enthalpy old            =    -303.1989903885 Ry
     enthalpy new            =    -303.1992102003 Ry

     CASE: enthalpy_new < enthalpy_old

     new trust radius        =       0.0143447976 bohr
     new conv_thr            =       0.0000000196 Ry

     new unit-cell volume =    978.95268 a.u.^3 (   145.06582 Ang^3 )

CELL_PARAMETERS (alat= 11.28030000)
   0.995470400   0.000000000   0.000000865
   0.000000000   0.600738357   0.000000000
   0.000000991   0.000000000   1.140475697

ATOMIC_POSITIONS (crystal)
Ca       0.239610788   0.250000000   0.109671872    1   0   1
Ca       0.260284508  -0.250000000   0.609377889    1   0   1
Ca       0.739737656   0.250000000   0.390010493    1   0   1
Ca      -0.239723953  -0.250000000  -0.109583728    1   0   1
H        0.355848559   0.250000000   0.426867455    1   0   1
H        0.144056992  -0.250000000   0.926631904    1   0   1
H        0.855948747   0.250000000   0.073248134    1   0   1
H       -0.356009591  -0.250000000  -0.428460284    1   0   1
H        0.974986829   0.250000000   0.675389608    1   0   1
H       -0.475047109  -0.250000000   1.175381018    1   0   1
H        1.475254724   0.250000000  -0.173160968    1   0   1
H       -0.974948151  -0.250000000  -0.675373394    1   0   1



     Writing output data file CaH2_ambient.save
     NEW-OLD atomic charge density approx. for the potential
     NEW k-points:
        k(    1) = (   0.1255687   0.1387182   0.1096033), wk =   0.0833333
        k(    2) = (   0.1255685   0.1387182   0.3288101), wk =   0.0833333
        k(    3) = (   0.1255687   0.4161545   0.1096033), wk =   0.0833333
        k(    4) = (   0.1255685   0.4161545   0.3288101), wk =   0.0833333
        k(    5) = (   0.1255687   0.6935909   0.1096033), wk =   0.0833333
        k(    6) = (   0.1255685   0.6935909   0.3288101), wk =   0.0833333
        k(    7) = (   0.3767062   0.1387182   0.1096031), wk =   0.0833333
        k(    8) = (   0.3767060   0.1387182   0.3288098), wk =   0.0833333
        k(    9) = (   0.3767062   0.4161545   0.1096031), wk =   0.0833333
        k(   10) = (   0.3767060   0.4161545   0.3288098), wk =   0.0833333
        k(   11) = (   0.3767062   0.6935909   0.1096031), wk =   0.0833333
        k(   12) = (   0.3767060   0.6935909   0.3288098), wk =   0.0833333
        k(   13) = (   0.1255689  -0.1387182  -0.1096035), wk =   0.0833333
        k(   14) = (   0.1255691  -0.1387182  -0.3288103), wk =   0.0833333
        k(   15) = (   0.1255689  -0.4161545  -0.1096035), wk =   0.0833333
        k(   16) = (   0.1255691  -0.4161545  -0.3288103), wk =   0.0833333
        k(   17) = (   0.1255689  -0.6935909  -0.1096035), wk =   0.0833333
        k(   18) = (   0.1255691  -0.6935909  -0.3288103), wk =   0.0833333
        k(   19) = (   0.3767064  -0.1387182  -0.1096037), wk =   0.0833333
        k(   20) = (   0.3767066  -0.1387182  -0.3288105), wk =   0.0833333
        k(   21) = (   0.3767064  -0.4161545  -0.1096037), wk =   0.0833333
        k(   22) = (   0.3767066  -0.4161545  -0.3288105), wk =   0.0833333
        k(   23) = (   0.3767064  -0.6935909  -0.1096037), wk =   0.0833333
        k(   24) = (   0.3767066  -0.6935909  -0.3288105), wk =   0.0833333
     extrapolated charge   47.71973, renormalised to   48.00000

     total cpu time spent up to now is     3098.0 secs

     per-process dynamical memory:   139.8 Mb

     Self-consistent Calculation

     iteration #  1     ecut=   120.00 Ry     beta=0.30
     Davidson diagonalization with overlap
     ethr =  1.00E-06,  avg # of iterations =  4.0

     total cpu time spent up to now is     3249.3 secs

     total energy              =    -303.19682753 Ry
     Harris-Foulkes estimate   =    -303.63839420 Ry
     estimated scf accuracy    <       0.00160096 Ry

     iteration #  2     ecut=   120.00 Ry     beta=0.30
     Davidson diagonalization with overlap
     ethr =  3.34E-06,  avg # of iterations =  3.4

     total cpu time spent up to now is     3363.1 secs

     total energy              =    -303.19895049 Ry
     Harris-Foulkes estimate   =    -303.19865189 Ry
     estimated scf accuracy    <       0.00005600 Ry

     iteration #  3     ecut=   120.00 Ry     beta=0.30
     Davidson diagonalization with overlap
     ethr =  1.17E-07,  avg # of iterations =  2.6

     total cpu time spent up to now is     3439.0 secs

     total energy              =    -303.19931600 Ry
     Harris-Foulkes estimate   =    -303.19895426 Ry
     estimated scf accuracy    <       0.00003697 Ry

     iteration #  4     ecut=   120.00 Ry     beta=0.30
     Davidson diagonalization with overlap
     ethr =  7.70E-08,  avg # of iterations =  2.0

     total cpu time spent up to now is     3525.9 secs

     total energy              =    -303.19931800 Ry
     Harris-Foulkes estimate   =    -303.19931983 Ry
     estimated scf accuracy    <       0.00000263 Ry

     iteration #  5     ecut=   120.00 Ry     beta=0.30
     Davidson diagonalization with overlap
     ethr =  5.49E-09,  avg # of iterations =  3.2

     total cpu time spent up to now is     3613.7 secs

     total energy              =    -303.19931691 Ry
     Harris-Foulkes estimate   =    -303.19931873 Ry
     estimated scf accuracy    <       0.00000067 Ry

     iteration #  6     ecut=   120.00 Ry     beta=0.30
     Davidson diagonalization with overlap
     ethr =  1.39E-09,  avg # of iterations =  2.3

     total cpu time spent up to now is     3716.5 secs

     total energy              =    -303.19931876 Ry
     Harris-Foulkes estimate   =    -303.19931702 Ry
     estimated scf accuracy    <       0.00000016 Ry

     iteration #  7     ecut=   120.00 Ry     beta=0.30
     Davidson diagonalization with overlap
     ethr =  3.41E-10,  avg # of iterations =  2.5

     total cpu time spent up to now is     3792.6 secs

     End of self-consistent calculation

          k = 0.1256 0.1387 0.1096 ( 22044 PWs)   bands (ev):

   -35.3578 -35.3360 -35.3295 -35.3213 -15.8941 -15.8334 -15.8092 -15.7474
   -15.7125 -15.6854 -15.6816 -15.6499 -15.6406 -15.6316 -15.6248 -15.6209
    -0.0993   1.9333   2.4185   2.8911   3.3738   3.5861   3.8549   4.4913

          k = 0.1256 0.1387 0.3288 ( 22050 PWs)   bands (ev):

   -35.3536 -35.3417 -35.3290 -35.3203 -15.8716 -15.8388 -15.7741 -15.7485
   -15.7254 -15.6992 -15.6746 -15.6609 -15.6506 -15.6347 -15.6304 -15.6247
     0.3041   1.0357   2.6317   2.9815   3.5262   3.5373   4.1236   4.4676

          k = 0.1256 0.4162 0.1096 ( 22086 PWs)   bands (ev):

   -35.3489 -35.3301 -35.3259 -35.3156 -15.8667 -15.8074 -15.8006 -15.7613
   -15.7425 -15.7332 -15.7232 -15.7036 -15.6960 -15.6776 -15.6355 -15.6299
     0.5324   2.2803   2.6831   3.0216   3.4112   3.5507   3.6669   4.1451

          k = 0.1256 0.4162 0.3288 ( 22073 PWs)   bands (ev):

   -35.3461 -35.3344 -35.3249 -35.3150 -15.8504 -15.8266 -15.7823 -15.7656
   -15.7571 -15.7414 -15.7209 -15.7023 -15.6820 -15.6652 -15.6475 -15.6364
     0.8903   1.5319   2.8319   3.0878   3.4767   3.4801   3.8523   4.1057

          k = 0.1256 0.6936 0.1096 ( 22100 PWs)   bands (ev):

   -35.3390 -35.3248 -35.3226 -35.3099 -15.8515 -15.8433 -15.8254 -15.8167
   -15.7839 -15.7721 -15.7491 -15.7162 -15.6920 -15.6675 -15.6549 -15.6449
     1.6192   2.7890   2.8254   3.0415   3.1826   3.3550   3.4820   3.6063

          k = 0.1256 0.6936 0.3288 ( 22077 PWs)   bands (ev):

   -35.3385 -35.3260 -35.3219 -35.3098 -15.8685 -15.8617 -15.8170 -15.8086
   -15.7933 -15.7843 -15.7313 -15.7167 -15.6732 -15.6627 -15.6504 -15.6483
     1.8871   2.3477   2.9713   3.0685   3.2027   3.2910   3.4220   3.4932

          k = 0.3767 0.1387 0.1096 ( 22079 PWs)   bands (ev):

   -35.3503 -35.3403 -35.3290 -35.3253 -15.8719 -15.8619 -15.8238 -15.7329
   -15.6884 -15.6783 -15.6690 -15.6554 -15.6530 -15.6364 -15.6333 -15.6292
     0.4158   1.3137   2.3285   2.8829   3.1917   3.5591   4.2260   4.5389

          k = 0.3767 0.1387 0.3288 ( 22022 PWs)   bands (ev):

   -35.3476 -35.3404 -35.3309 -35.3255 -15.8515 -15.8318 -15.8163 -15.7648
   -15.6996 -15.6910 -15.6662 -15.6547 -15.6483 -15.6421 -15.6371 -15.6323
     0.7850   1.4054   1.7167   2.2223   3.8208   4.0497   4.1546   4.4187

          k = 0.3767 0.4162 0.1096 ( 22055 PWs)   bands (ev):

   -35.3425 -35.3337 -35.3244 -35.3198 -15.8483 -15.8388 -15.8203 -15.7636
   -15.7487 -15.7263 -15.7071 -15.6966 -15.6785 -15.6587 -15.6502 -15.6417
     0.9872   1.7619   2.6284   3.0197   3.3528   3.5601   3.9106   4.0824

          k = 0.3767 0.4162 0.3288 ( 22051 PWs)   bands (ev):

   -35.3409 -35.3339 -35.3256 -35.3199 -15.8448 -15.8321 -15.8183 -15.7888
   -15.7291 -15.7203 -15.7014 -15.6945 -15.6872 -15.6726 -15.6469 -15.6430
     1.3107   1.8373   2.1235   2.5313   3.6913   3.7879   3.9118   4.0543

          k = 0.3767 0.6936 0.1096 ( 22075 PWs)   bands (ev):

   -35.3344 -35.3272 -35.3203 -35.3143 -15.8590 -15.8521 -15.8436 -15.8331
   -15.7707 -15.7519 -15.7443 -15.7278 -15.6752 -15.6581 -15.6560 -15.6463
     1.9542   2.4760   2.9929   3.0484   3.2132   3.2855   3.4777   3.5622

          k = 0.3767 0.6936 0.3288 ( 22061 PWs)   bands (ev):

   -35.3341 -35.3272 -35.3205 -35.3143 -15.8756 -15.8707 -15.8498 -15.8435
   -15.7498 -15.7410 -15.7264 -15.7188 -15.6743 -15.6648 -15.6530 -15.6487
     2.1851   2.5193   2.7735   2.9864   3.1374   3.2333   3.4463   3.4991

          k = 0.1256-0.1387-0.1096 ( 22044 PWs)   bands (ev):

   -35.3578 -35.3361 -35.3294 -35.3213 -15.8942 -15.8327 -15.8096 -15.7486
   -15.7113 -15.6852 -15.6818 -15.6498 -15.6405 -15.6316 -15.6248 -15.6212
    -0.0992   1.9319   2.4213   2.8874   3.3788   3.5831   3.8561   4.4902

          k = 0.1256-0.1387-0.3288 ( 22050 PWs)   bands (ev):

   -35.3536 -35.3418 -35.3290 -35.3203 -15.8719 -15.8381 -15.7750 -15.7493
   -15.7247 -15.6984 -15.6749 -15.6600 -15.6515 -15.6348 -15.6304 -15.6248
     0.3045   1.0350   2.6342   2.9767   3.5305   3.5367   4.1242   4.4658

          k = 0.1256-0.4162-0.1096 ( 22086 PWs)   bands (ev):

   -35.3489 -35.3302 -35.3258 -35.3157 -15.8668 -15.8066 -15.8011 -15.7619
   -15.7424 -15.7336 -15.7230 -15.7034 -15.6955 -15.6777 -15.6351 -15.6304
     0.5324   2.2797   2.6855   3.0179   3.4128   3.5507   3.6677   4.1446

          k = 0.1256-0.4162-0.3288 ( 22073 PWs)   bands (ev):

   -35.3461 -35.3345 -35.3248 -35.3151 -15.8507 -15.8260 -15.7825 -15.7659
   -15.7574 -15.7411 -15.7210 -15.7022 -15.6824 -15.6643 -15.6476 -15.6369
     0.8905   1.5316   2.8348   3.0825   3.4713   3.4885   3.8524   4.1051

          k = 0.1256-0.6936-0.1096 ( 22100 PWs)   bands (ev):

   -35.3390 -35.3249 -35.3225 -35.3099 -15.8516 -15.8428 -15.8264 -15.8162
   -15.7838 -15.7712 -15.7499 -15.7163 -15.6921 -15.6673 -15.6549 -15.6449
     1.6192   2.7891   2.8255   3.0420   3.1833   3.3528   3.4827   3.6063

          k = 0.1256-0.6936-0.3288 ( 22077 PWs)   bands (ev):

   -35.3385 -35.3261 -35.3218 -35.3098 -15.8685 -15.8617 -15.8174 -15.8086
   -15.7931 -15.7840 -15.7317 -15.7166 -15.6738 -15.6620 -15.6501 -15.6487
     1.8871   2.3478   2.9714   3.0697   3.2024   3.2883   3.4253   3.4915

          k = 0.3767-0.1387-0.1096 ( 22079 PWs)   bands (ev):

   -35.3503 -35.3404 -35.3288 -35.3254 -15.8714 -15.8625 -15.8239 -15.7326
   -15.6887 -15.6783 -15.6685 -15.6554 -15.6533 -15.6363 -15.6335 -15.6292
     0.4160   1.3133   2.3280   2.8783   3.2014   3.5553   4.2250   4.5390

          k = 0.3767-0.1387-0.3288 ( 22022 PWs)   bands (ev):

   -35.3476 -35.3406 -35.3307 -35.3256 -15.8509 -15.8321 -15.8173 -15.7638
   -15.7007 -15.6900 -15.6660 -15.6550 -15.6482 -15.6422 -15.6369 -15.6325
     0.7860   1.4026   1.7186   2.2216   3.8273   4.0423   4.1564   4.4183

          k = 0.3767-0.4162-0.1096 ( 22055 PWs)   bands (ev):

   -35.3425 -35.3338 -35.3243 -35.3198 -15.8479 -15.8391 -15.8205 -15.7635
   -15.7486 -15.7263 -15.7064 -15.6975 -15.6784 -15.6585 -15.6501 -15.6419
     0.9874   1.7618   2.6301   3.0122   3.3626   3.5568   3.9099   4.0823

          k = 0.3767-0.4162-0.3288 ( 22051 PWs)   bands (ev):

   -35.3409 -35.3340 -35.3255 -35.3200 -15.8445 -15.8322 -15.8190 -15.7884
   -15.7292 -15.7198 -15.7011 -15.6956 -15.6872 -15.6722 -15.6467 -15.6432
     1.3111   1.8358   2.1259   2.5291   3.6974   3.7820   3.9133   4.0533

          k = 0.3767-0.6936-0.1096 ( 22075 PWs)   bands (ev):

   -35.3344 -35.3272 -35.3203 -35.3143 -15.8590 -15.8518 -15.8441 -15.8330
   -15.7699 -15.7528 -15.7436 -15.7282 -15.6754 -15.6580 -15.6560 -15.6462
     1.9541   2.4763   2.9932   3.0492   3.2138   3.2827   3.4776   3.5630

          k = 0.3767-0.6936-0.3288 ( 22061 PWs)   bands (ev):

   -35.3341 -35.3272 -35.3205 -35.3143 -15.8756 -15.8707 -15.8500 -15.8435
   -15.7490 -15.7413 -15.7270 -15.7188 -15.6748 -15.6644 -15.6532 -15.6485
     2.1848   2.5194   2.7761   2.9838   3.1364   3.2341   3.4474   3.4984

!    total energy              =    -303.19931950 Ry
     Harris-Foulkes estimate   =    -303.19931877 Ry
     estimated scf accuracy    <       0.00000001 Ry

     The total energy is the sum of the following terms:

     one-electron contribution =    -120.62386891 Ry
     hartree contribution      =      68.03109536 Ry
     xc contribution           =     -46.81729870 Ry
     ewald contribution        =    -203.78924725 Ry

     convergence has been achieved in   7 iterations

     Forces acting on atoms (Ry/au):

     atom    1 type  2   force =    -0.00013038    0.00000000   -0.00002842
     atom    2 type  2   force =     0.00003346    0.00000000    0.00005522
     atom    3 type  2   force =    -0.00017653    0.00000000   -0.00016943
     atom    4 type  2   force =     0.00001435    0.00000000   -0.00023242
     atom    5 type  1   force =     0.00033188    0.00000000    0.00015828
     atom    6 type  1   force =    -0.00033573    0.00000000    0.00007626
     atom    7 type  1   force =     0.00041598    0.00000000   -0.00014249
     atom    8 type  1   force =    -0.00038624    0.00000000    0.00132538
     atom    9 type  1   force =    -0.00045895    0.00000000   -0.00142732
     atom   10 type  1   force =     0.00044492    0.00000000   -0.00125744
     atom   11 type  1   force =    -0.00023318    0.00000000    0.00033460
     atom   12 type  1   force =     0.00048042    0.00000000    0.00130776

     Total force =     0.002937     Total SCF correction =     0.000843
     SCF correction compared to forces is large: reduce conv_thr to get better values


     entering subroutine stress ...

          total   stress  (Ry/bohr**3)                   (kbar)     P=    0.30
   0.00000302   0.00000000   0.00000003          0.44      0.00      0.00
   0.00000000   0.00000064   0.00000000          0.00      0.09      0.00
   0.00000003   0.00000000   0.00000247          0.00      0.00      0.36


     number of scf cycles    =   4
     number of bfgs steps    =   3

     enthalpy old            =    -303.1992102003 Ry
     enthalpy new            =    -303.1993194982 Ry

     CASE: enthalpy_new < enthalpy_old

     new trust radius        =       0.0030866904 bohr
     new conv_thr            =       0.0000000109 Ry

     new unit-cell volume =    977.94846 a.u.^3 (   144.91701 Ang^3 )

CELL_PARAMETERS (alat= 11.28030000)
   0.995205054   0.000000000   0.000001799
   0.000000000   0.600466496   0.000000000
   0.000002062   0.000000000   1.140125517

ATOMIC_POSITIONS (crystal)
Ca       0.239564266   0.250000000   0.109650625    1   0   1
Ca       0.260311569  -0.250000000   0.609340836    1   0   1
Ca       0.739696252   0.250000000   0.389986413    1   0   1
Ca      -0.239699711  -0.250000000  -0.109580674    1   0   1
H        0.355898110   0.250000000   0.426912473    1   0   1
H        0.143999562  -0.250000000   0.926650175    1   0   1
H        0.856015748   0.250000000   0.073214020    1   0   1
H       -0.356078057  -0.250000000  -0.428247178    1   0   1
H        0.974902248   0.250000000   0.675161318    1   0   1
H       -0.474968897  -0.250000000   1.175168721    1   0   1
H        1.475216942   0.250000000  -0.173101249    1   0   1
H       -0.974858032  -0.250000000  -0.675155481    1   0   1



     Writing output data file CaH2_ambient.save
     NEW-OLD atomic charge density approx. for the potential
     NEW k-points:
        k(    1) = (   0.1256021   0.1387810   0.1096368), wk =   0.0833333
        k(    2) = (   0.1256017   0.1387810   0.3289109), wk =   0.0833333
        k(    3) = (   0.1256021   0.4163430   0.1096368), wk =   0.0833333
        k(    4) = (   0.1256017   0.4163430   0.3289109), wk =   0.0833333
        k(    5) = (   0.1256021   0.6939049   0.1096368), wk =   0.0833333
        k(    6) = (   0.1256017   0.6939049   0.3289109), wk =   0.0833333
        k(    7) = (   0.3768066   0.1387810   0.1096364), wk =   0.0833333
        k(    8) = (   0.3768062   0.1387810   0.3289105), wk =   0.0833333
        k(    9) = (   0.3768066   0.4163430   0.1096364), wk =   0.0833333
        k(   10) = (   0.3768062   0.4163430   0.3289105), wk =   0.0833333
        k(   11) = (   0.3768066   0.6939049   0.1096364), wk =   0.0833333
        k(   12) = (   0.3768062   0.6939049   0.3289105), wk =   0.0833333
        k(   13) = (   0.1256025  -0.1387810  -0.1096373), wk =   0.0833333
        k(   14) = (   0.1256029  -0.1387810  -0.3289114), wk =   0.0833333
        k(   15) = (   0.1256025  -0.4163430  -0.1096373), wk =   0.0833333
        k(   16) = (   0.1256029  -0.4163430  -0.3289114), wk =   0.0833333
        k(   17) = (   0.1256025  -0.6939049  -0.1096373), wk =   0.0833333
        k(   18) = (   0.1256029  -0.6939049  -0.3289114), wk =   0.0833333
        k(   19) = (   0.3768070  -0.1387810  -0.1096377), wk =   0.0833333
        k(   20) = (   0.3768074  -0.1387810  -0.3289118), wk =   0.0833333
        k(   21) = (   0.3768070  -0.4163430  -0.1096377), wk =   0.0833333
        k(   22) = (   0.3768074  -0.4163430  -0.3289118), wk =   0.0833333
        k(   23) = (   0.3768070  -0.6939049  -0.1096377), wk =   0.0833333
        k(   24) = (   0.3768074  -0.6939049  -0.3289118), wk =   0.0833333
     extrapolated charge   47.95073, renormalised to   48.00000

     total cpu time spent up to now is     4102.3 secs

     per-process dynamical memory:   139.8 Mb

     Self-consistent Calculation

     iteration #  1     ecut=   120.00 Ry     beta=0.30
     Davidson diagonalization with overlap
     ethr =  1.00E-06,  avg # of iterations =  2.3

     Threshold (ethr) on eigenvalues was too large:
     Diagonalizing with lowered threshold

     Davidson diagonalization with overlap
     ethr =  8.82E-08,  avg # of iterations =  3.1

     total cpu time spent up to now is     4276.1 secs

     total energy              =    -303.19924339 Ry
     Harris-Foulkes estimate   =    -303.27667945 Ry
     estimated scf accuracy    <       0.00004780 Ry

     iteration #  2     ecut=   120.00 Ry     beta=0.30
     Davidson diagonalization with overlap
     ethr =  9.96E-08,  avg # of iterations =  3.8

     total cpu time spent up to now is     4390.9 secs

     total energy              =    -303.19931535 Ry
     Harris-Foulkes estimate   =    -303.19929759 Ry
     estimated scf accuracy    <       0.00000258 Ry

     iteration #  3     ecut=   120.00 Ry     beta=0.30
     Davidson diagonalization with overlap
     ethr =  5.37E-09,  avg # of iterations =  2.2

     total cpu time spent up to now is     4461.3 secs

     total energy              =    -303.19933595 Ry
     Harris-Foulkes estimate   =    -303.19931548 Ry
     estimated scf accuracy    <       0.00000169 Ry

     iteration #  4     ecut=   120.00 Ry     beta=0.30
     Davidson diagonalization with overlap
     ethr =  3.51E-09,  avg # of iterations =  2.0

     total cpu time spent up to now is     4553.6 secs

     total energy              =    -303.19933636 Ry
     Harris-Foulkes estimate   =    -303.19933616 Ry
     estimated scf accuracy    <       0.00000004 Ry

     iteration #  5     ecut=   120.00 Ry     beta=0.30
     Davidson diagonalization with overlap
     ethr =  9.31E-11,  avg # of iterations =  4.0

     total cpu time spent up to now is     4656.7 secs

     total energy              =    -303.19933680 Ry
     Harris-Foulkes estimate   =    -303.19933638 Ry
     estimated scf accuracy    <       0.00000002 Ry

     iteration #  6     ecut=   120.00 Ry     beta=0.30
     Davidson diagonalization with overlap
     ethr =  4.02E-11,  avg # of iterations =  2.0

     total cpu time spent up to now is     4727.8 secs

     End of self-consistent calculation

          k = 0.1256 0.1388 0.1096 ( 22044 PWs)   bands (ev):

   -35.3454 -35.3233 -35.3178 -35.3104 -15.8828 -15.8220 -15.7978 -15.7357
   -15.7005 -15.6735 -15.6698 -15.6375 -15.6283 -15.6206 -15.6130 -15.6090
    -0.0939   1.9403   2.4256   2.8983   3.3811   3.5929   3.8629   4.4972

          k = 0.1256 0.1388 0.3289 ( 22050 PWs)   bands (ev):

   -35.3410 -35.3298 -35.3168 -35.3094 -15.8601 -15.8275 -15.7624 -15.7368
   -15.7139 -15.6873 -15.6624 -15.6490 -15.6384 -15.6228 -15.6187 -15.6133
     0.3100   1.0421   2.6389   2.9886   3.5334   3.5438   4.1317   4.4746

          k = 0.1256 0.4163 0.1096 ( 22086 PWs)   bands (ev):

   -35.3363 -35.3177 -35.3139 -35.3049 -15.8553 -15.7959 -15.7892 -15.7495
   -15.7310 -15.7215 -15.7114 -15.6919 -15.6846 -15.6657 -15.6235 -15.6181
     0.5385   2.2876   2.6904   3.0285   3.4180   3.5583   3.6749   4.1512

          k = 0.1256 0.4163 0.3289 ( 22073 PWs)   bands (ev):

   -35.3333 -35.3227 -35.3125 -35.3042 -15.8388 -15.8153 -15.7707 -15.7540
   -15.7456 -15.7294 -15.7097 -15.6907 -15.6704 -15.6530 -15.6357 -15.6247
     0.8968   1.5387   2.8392   3.0948   3.4831   3.4874   3.8602   4.1128

          k = 0.1256 0.6939 0.1096 ( 22100 PWs)   bands (ev):

   -35.3260 -35.3138 -35.3095 -35.2991 -15.8400 -15.8321 -15.8140 -15.8056
   -15.7727 -15.7605 -15.7372 -15.7047 -15.6801 -15.6550 -15.6433 -15.6334
     1.6264   2.7964   2.8337   3.0488   3.1899   3.3613   3.4888   3.6129

          k = 0.1256 0.6939 0.3289 ( 22077 PWs)   bands (ev):

   -35.3254 -35.3149 -35.3090 -35.2990 -15.8571 -15.8510 -15.8051 -15.7978
   -15.7814 -15.7733 -15.7191 -15.7055 -15.6610 -15.6500 -15.6391 -15.6369
     1.8944   2.3550   2.9793   3.0761   3.2097   3.2975   3.4287   3.4999

          k = 0.3768 0.1388 0.1096 ( 22079 PWs)   bands (ev):

   -35.3377 -35.3273 -35.3178 -35.3144 -15.8606 -15.8506 -15.8123 -15.7210
   -15.6764 -15.6661 -15.6568 -15.6438 -15.6405 -15.6248 -15.6220 -15.6176
     0.4217   1.3204   2.3354   2.8900   3.1992   3.5663   4.2325   4.5454

          k = 0.3768 0.1388 0.3289 ( 22022 PWs)   bands (ev):

   -35.3348 -35.3276 -35.3198 -35.3146 -15.8399 -15.8202 -15.8051 -15.7531
   -15.6876 -15.6790 -15.6539 -15.6423 -15.6363 -15.6301 -15.6259 -15.6210
     0.7914   1.4123   1.7232   2.2292   3.8281   4.0564   4.1618   4.4256

          k = 0.3768 0.4163 0.1096 ( 22055 PWs)   bands (ev):

   -35.3298 -35.3207 -35.3132 -35.3089 -15.8368 -15.8274 -15.8088 -15.7516
   -15.7375 -15.7143 -15.6959 -15.6848 -15.6665 -15.6460 -15.6391 -15.6301
     0.9938   1.7690   2.6356   3.0266   3.3605   3.5676   3.9174   4.0889

          k = 0.3768 0.4163 0.3289 ( 22051 PWs)   bands (ev):

   -35.3279 -35.3210 -35.3146 -35.3091 -15.8333 -15.8208 -15.8068 -15.7773
   -15.7174 -15.7083 -15.6900 -15.6827 -15.6754 -15.6606 -15.6351 -15.6314
     1.3174   1.8446   2.1302   2.5382   3.6986   3.7947   3.9191   4.0612

          k = 0.3768 0.6939 0.1096 ( 22075 PWs)   bands (ev):

   -35.3213 -35.3140 -35.3095 -35.3035 -15.8477 -15.8410 -15.8320 -15.8222
   -15.7590 -15.7404 -15.7328 -15.7161 -15.6628 -15.6462 -15.6437 -15.6353
     1.9616   2.4836   3.0011   3.0557   3.2204   3.2923   3.4840   3.5687

          k = 0.3768 0.6939 0.3289 ( 22061 PWs)   bands (ev):

   -35.3210 -35.3140 -35.3097 -35.3035 -15.8644 -15.8597 -15.8383 -15.8326
   -15.7380 -15.7295 -15.7147 -15.7072 -15.6620 -15.6523 -15.6415 -15.6375
     2.1924   2.5269   2.7806   2.9936   3.1446   3.2407   3.4532   3.5059

          k = 0.1256-0.1388-0.1096 ( 22044 PWs)   bands (ev):

   -35.3454 -35.3234 -35.3176 -35.3105 -15.8828 -15.8214 -15.7982 -15.7368
   -15.6993 -15.6733 -15.6700 -15.6374 -15.6284 -15.6205 -15.6130 -15.6093
    -0.0938   1.9390   2.4279   2.8950   3.3855   3.5904   3.8640   4.4962

          k = 0.1256-0.1388-0.3289 ( 22050 PWs)   bands (ev):

   -35.3409 -35.3299 -35.3167 -35.3094 -15.8604 -15.8268 -15.7633 -15.7376
   -15.7131 -15.6865 -15.6627 -15.6481 -15.6395 -15.6227 -15.6187 -15.6134
     0.3103   1.0415   2.6412   2.9843   3.5376   3.5429   4.1322   4.4729

          k = 0.1256-0.4163-0.1096 ( 22086 PWs)   bands (ev):

   -35.3363 -35.3178 -35.3137 -35.3049 -15.8553 -15.7951 -15.7896 -15.7501
   -15.7307 -15.7222 -15.7111 -15.6917 -15.6841 -15.6659 -15.6233 -15.6184
     0.5386   2.2870   2.6924   3.0252   3.4194   3.5584   3.6755   4.1508

          k = 0.1256-0.4163-0.3289 ( 22073 PWs)   bands (ev):

   -35.3332 -35.3228 -35.3125 -35.3042 -15.8390 -15.8147 -15.7709 -15.7544
   -15.7458 -15.7291 -15.7097 -15.6906 -15.6706 -15.6522 -15.6360 -15.6249
     0.8969   1.5384   2.8418   3.0899   3.4784   3.4949   3.8603   4.1122

          k = 0.1256-0.6939-0.1096 ( 22100 PWs)   bands (ev):

   -35.3260 -35.3138 -35.3095 -35.2991 -15.8401 -15.8315 -15.8152 -15.8051
   -15.7726 -15.7596 -15.7380 -15.7048 -15.6801 -15.6549 -15.6433 -15.6334
     1.6264   2.7965   2.8337   3.0491   3.1906   3.3594   3.4894   3.6129

          k = 0.1256-0.6939-0.3289 ( 22077 PWs)   bands (ev):

   -35.3254 -35.3149 -35.3090 -35.2990 -15.8571 -15.8510 -15.8055 -15.7978
   -15.7812 -15.7729 -15.7196 -15.7053 -15.6615 -15.6494 -15.6389 -15.6372
     1.8943   2.3551   2.9794   3.0771   3.2094   3.2952   3.4317   3.4983

          k = 0.3768-0.1388-0.1096 ( 22079 PWs)   bands (ev):

   -35.3377 -35.3275 -35.3175 -35.3146 -15.8601 -15.8511 -15.8124 -15.7207
   -15.6766 -15.6662 -15.6563 -15.6439 -15.6409 -15.6245 -15.6221 -15.6176
     0.4220   1.3201   2.3348   2.8859   3.2081   3.5628   4.2316   4.5454

          k = 0.3768-0.1388-0.3289 ( 22022 PWs)   bands (ev):

   -35.3347 -35.3279 -35.3195 -35.3148 -15.8395 -15.8202 -15.8062 -15.7522
   -15.6888 -15.6780 -15.6537 -15.6427 -15.6365 -15.6300 -15.6256 -15.6213
     0.7922   1.4099   1.7248   2.2287   3.8340   4.0499   4.1632   4.4252

          k = 0.3768-0.4163-0.1096 ( 22055 PWs)   bands (ev):

   -35.3297 -35.3208 -35.3130 -35.3090 -15.8365 -15.8276 -15.8091 -15.7515
   -15.7374 -15.7143 -15.6950 -15.6859 -15.6663 -15.6459 -15.6390 -15.6301
     0.9939   1.7689   2.6370   3.0199   3.3696   3.5645   3.9167   4.0888

          k = 0.3768-0.4163-0.3289 ( 22051 PWs)   bands (ev):

   -35.3279 -35.3212 -35.3143 -35.3092 -15.8330 -15.8207 -15.8076 -15.7768
   -15.7176 -15.7078 -15.6896 -15.6838 -15.6754 -15.6602 -15.6351 -15.6314
     1.3178   1.8434   2.1323   2.5363   3.7042   3.7896   3.9203   4.0603

          k = 0.3768-0.6939-0.1096 ( 22075 PWs)   bands (ev):

   -35.3213 -35.3140 -35.3094 -35.3035 -15.8477 -15.8406 -15.8325 -15.8222
   -15.7583 -15.7412 -15.7320 -15.7166 -15.6629 -15.6461 -15.6436 -15.6352
     1.9615   2.4839   3.0014   3.0564   3.2210   3.2898   3.4840   3.5694

          k = 0.3768-0.6939-0.3289 ( 22061 PWs)   bands (ev):

   -35.3209 -35.3140 -35.3096 -35.3035 -15.8643 -15.8597 -15.8385 -15.8325
   -15.7372 -15.7297 -15.7152 -15.7072 -15.6624 -15.6519 -15.6416 -15.6374
     2.1921   2.5271   2.7828   2.9913   3.1437   3.2413   3.4542   3.5052

!    total energy              =    -303.19933692 Ry
     Harris-Foulkes estimate   =    -303.19933680 Ry
     estimated scf accuracy    <          6.0E-09 Ry

     The total energy is the sum of the following terms:

     one-electron contribution =    -120.52249543 Ry
     hartree contribution      =      68.00069622 Ry
     xc contribution           =     -46.82050291 Ry
     ewald contribution        =    -203.85703479 Ry

     convergence has been achieved in   6 iterations

     Forces acting on atoms (Ry/au):

     atom    1 type  2   force =    -0.00004585    0.00000000    0.00005018
     atom    2 type  2   force =    -0.00003375    0.00000000    0.00022722
     atom    3 type  2   force =    -0.00014334    0.00000000   -0.00015102
     atom    4 type  2   force =    -0.00004228    0.00000000   -0.00035671
     atom    5 type  1   force =     0.00037450    0.00000000    0.00013149
     atom    6 type  1   force =    -0.00039436    0.00000000    0.00005146
     atom    7 type  1   force =     0.00047379    0.00000000   -0.00015530
     atom    8 type  1   force =    -0.00043735    0.00000000    0.00161823
     atom    9 type  1   force =    -0.00062132    0.00000000   -0.00193747
     atom   10 type  1   force =     0.00057882    0.00000000   -0.00171072
     atom   11 type  1   force =    -0.00032598    0.00000000    0.00048132
     atom   12 type  1   force =     0.00061713    0.00000000    0.00175132

     Total force =     0.003846     Total SCF correction =     0.000557
     SCF correction compared to forces is large: reduce conv_thr to get better values


     entering subroutine stress ...

          total   stress  (Ry/bohr**3)                   (kbar)     P=    0.90
   0.00000676   0.00000000   0.00000004          0.99      0.00      0.01
   0.00000000   0.00000523   0.00000000          0.00      0.77      0.00
   0.00000004   0.00000000   0.00000627          0.01      0.00      0.92


     number of scf cycles    =   5
     number of bfgs steps    =   4

     enthalpy old            =    -303.1993194982 Ry
     enthalpy new            =    -303.1993369180 Ry

     CASE: enthalpy_new < enthalpy_old


     WARNING: bfgs curvature condition failed, Theta= 0.749
     new trust radius        =       0.0046286343 bohr
     new conv_thr            =       0.0000000100 Ry

     new unit-cell volume =    976.26170 a.u.^3 (   144.66706 Ang^3 )

CELL_PARAMETERS (alat= 11.28030000)
   0.994743273   0.000000000   0.000002684
   0.000000000   0.600022117   0.000000000
   0.000003076   0.000000000   1.139530706

ATOMIC_POSITIONS (crystal)
Ca       0.239493456   0.250000000   0.109615938    1   0   1
Ca       0.260354330  -0.250000000   0.609277402    1   0   1
Ca       0.739636744   0.250000000   0.389952306    1   0   1
Ca      -0.239661559  -0.250000000  -0.109567279    1   0   1
H        0.355962906   0.250000000   0.426977379    1   0   1
H        0.143924441  -0.250000000   0.926677079    1   0   1
H        0.856103775   0.250000000   0.073166934    1   0   1
H       -0.356169018  -0.250000000  -0.427969570    1   0   1
H        0.974796081   0.250000000   0.674875298    1   0   1
H       -0.474869910  -0.250000000   1.174900802    1   0   1
H        1.475171196   0.250000000  -0.173026857    1   0   1
H       -0.974742442  -0.250000000  -0.674879432    1   0   1



     Writing output data file CaH2_ambient.save
     NEW-OLD atomic charge density approx. for the potential
     NEW k-points:
        k(    1) = (   0.1256603   0.1388838   0.1096939), wk =   0.0833333
        k(    2) = (   0.1256597   0.1388838   0.3290825), wk =   0.0833333
        k(    3) = (   0.1256603   0.4166513   0.1096939), wk =   0.0833333
        k(    4) = (   0.1256597   0.4166513   0.3290825), wk =   0.0833333
        k(    5) = (   0.1256603   0.6944188   0.1096939), wk =   0.0833333
        k(    6) = (   0.1256597   0.6944188   0.3290825), wk =   0.0833333
        k(    7) = (   0.3769814   0.1388838   0.1096933), wk =   0.0833333
        k(    8) = (   0.3769808   0.1388838   0.3290818), wk =   0.0833333
        k(    9) = (   0.3769814   0.4166513   0.1096933), wk =   0.0833333
[...]
         8           H   tau(   8) = (  -0.3555351  -0.1501107  -0.4872434  )
         9           H   tau(   9) = (   0.9708399   0.1501107   0.7682322  )
        10           H   tau(  10) = (  -0.4724412  -0.1501107   1.3391581  )
        11           H   tau(  11) = (   1.4694801   0.1501107  -0.1967915  )
        12           H   tau(  12) = (  -0.9708065  -0.1501107  -0.7684526  )

     number of k points=    24
                       cart. coord. in units 2pi/alat
        k(    1) = (   0.1254386   0.1387865   0.1095621), wk =   0.0833333
        k(    2) = (   0.1254371   0.1387865   0.3286882), wk =   0.0833333
        k(    3) = (   0.1254386   0.4163595   0.1095621), wk =   0.0833333
        k(    4) = (   0.1254371   0.4163595   0.3286882), wk =   0.0833333
        k(    5) = (   0.1254386   0.6939325   0.1095621), wk =   0.0833333
        k(    6) = (   0.1254371   0.6939325   0.3286882), wk =   0.0833333
        k(    7) = (   0.3763175   0.1387865   0.1095603), wk =   0.0833333
        k(    8) = (   0.3763159   0.1387865   0.3286864), wk =   0.0833333
        k(    9) = (   0.3763175   0.4163595   0.1095603), wk =   0.0833333
        k(   10) = (   0.3763159   0.4163595   0.3286864), wk =   0.0833333
        k(   11) = (   0.3763175   0.6939325   0.1095603), wk =   0.0833333
        k(   12) = (   0.3763159   0.6939325   0.3286864), wk =   0.0833333
        k(   13) = (   0.1254402  -0.1387865  -0.1095639), wk =   0.0833333
        k(   14) = (   0.1254418  -0.1387865  -0.3286900), wk =   0.0833333
        k(   15) = (   0.1254402  -0.4163595  -0.1095639), wk =   0.0833333
        k(   16) = (   0.1254418  -0.4163595  -0.3286900), wk =   0.0833333
        k(   17) = (   0.1254402  -0.6939325  -0.1095639), wk =   0.0833333
        k(   18) = (   0.1254418  -0.6939325  -0.3286900), wk =   0.0833333
        k(   19) = (   0.3763191  -0.1387865  -0.1095658), wk =   0.0833333
        k(   20) = (   0.3763207  -0.1387865  -0.3286918), wk =   0.0833333
        k(   21) = (   0.3763191  -0.4163595  -0.1095658), wk =   0.0833333
        k(   22) = (   0.3763207  -0.4163595  -0.3286918), wk =   0.0833333
        k(   23) = (   0.3763191  -0.6939325  -0.1095658), wk =   0.0833333
        k(   24) = (   0.3763207  -0.6939325  -0.3286918), wk =   0.0833333

     Dense  grid:   173989 G-vectors     FFT dimensions: (  80,  48,  90)

     Largest allocated arrays     est. size (Mb)     dimensions
        Kohn-Sham Wavefunctions         7.97 Mb     (  21776,   24)
        NL pseudopotentials            17.28 Mb     (  21776,   52)
        Each V/rho on FFT grid          5.27 Mb     ( 345600)
        Each G-vector array             1.33 Mb     ( 173989)
        G-vector shells                 0.34 Mb     (  44889)
     Largest temporary arrays     est. size (Mb)     dimensions
        Auxiliary wavefunctions        31.90 Mb     (  21776,   96)
        Each subspace H/S matrix        0.14 Mb     (  96,  96)
        Each <psi_i|beta_j> matrix      0.02 Mb     (     52,   24)
        Arrays for rho mixing          84.38 Mb     ( 345600,  16)

     Initial potential from superposition of free atoms

     starting charge   47.97855, renormalised to   48.00000
     Starting wfc are   60 randomized atomic wfcs

     Writing output data file CaH2_ambient.save

     total cpu time spent up to now is    19875.1 secs

     per-process dynamical memory:   140.8 Mb

     Self-consistent Calculation

     iteration #  1     ecut=   120.00 Ry     beta=0.30
     Davidson diagonalization with overlap
     ethr =  1.00E-06,  avg # of iterations =  8.3

     total cpu time spent up to now is    20114.4 secs

     total energy              =    -303.27016899 Ry
     Harris-Foulkes estimate   =    -303.34403721 Ry
     estimated scf accuracy    <       0.62348896 Ry

     iteration #  2     ecut=   120.00 Ry     beta=0.30
     Davidson diagonalization with overlap
     ethr =  1.30E-03,  avg # of iterations =  1.0

     total cpu time spent up to now is    20187.2 secs

     total energy              =    -303.14107517 Ry
     Harris-Foulkes estimate   =    -303.27372369 Ry
     estimated scf accuracy    <       0.35987474 Ry

     iteration #  3     ecut=   120.00 Ry     beta=0.30
     Davidson diagonalization with overlap
     ethr =  7.50E-04,  avg # of iterations =  2.7

     total cpu time spent up to now is    20274.3 secs

     total energy              =    -303.19373709 Ry
     Harris-Foulkes estimate   =    -303.19381827 Ry
     estimated scf accuracy    <       0.00752708 Ry

     iteration #  4     ecut=   120.00 Ry     beta=0.30
     Davidson diagonalization with overlap
     ethr =  1.57E-05,  avg # of iterations =  4.0

     total cpu time spent up to now is    20375.2 secs

     total energy              =    -303.19844820 Ry
     Harris-Foulkes estimate   =    -303.19827763 Ry
     estimated scf accuracy    <       0.00341566 Ry

     iteration #  5     ecut=   120.00 Ry     beta=0.30
     Davidson diagonalization with overlap
     ethr =  7.12E-06,  avg # of iterations =  3.0

     total cpu time spent up to now is    20465.4 secs

     total energy              =    -303.19900134 Ry
     Harris-Foulkes estimate   =    -303.19933432 Ry
     estimated scf accuracy    <       0.00086599 Ry

     iteration #  6     ecut=   120.00 Ry     beta=0.30
     Davidson diagonalization with overlap
     ethr =  1.80E-06,  avg # of iterations =  2.0

     total cpu time spent up to now is    20548.9 secs

     total energy              =    -303.19914253 Ry
     Harris-Foulkes estimate   =    -303.19914289 Ry
     estimated scf accuracy    <       0.00003505 Ry

     iteration #  7     ecut=   120.00 Ry     beta=0.30
     Davidson diagonalization with overlap
     ethr =  7.30E-08,  avg # of iterations =  4.0

     total cpu time spent up to now is    20675.8 secs

     total energy              =    -303.19915613 Ry
     Harris-Foulkes estimate   =    -303.19915760 Ry
     estimated scf accuracy    <       0.00000784 Ry

     iteration #  8     ecut=   120.00 Ry     beta=0.30
     Davidson diagonalization with overlap
     ethr =  1.63E-08,  avg # of iterations =  2.0

     total cpu time spent up to now is    20752.0 secs

     total energy              =    -303.19915623 Ry
     Harris-Foulkes estimate   =    -303.19915652 Ry
     estimated scf accuracy    <       0.00000226 Ry

     iteration #  9     ecut=   120.00 Ry     beta=0.30
     Davidson diagonalization with overlap
     ethr =  4.72E-09,  avg # of iterations =  2.1

     total cpu time spent up to now is    20854.2 secs

     total energy              =    -303.19915681 Ry
     Harris-Foulkes estimate   =    -303.19915682 Ry
     estimated scf accuracy    <       0.00000053 Ry

     iteration # 10     ecut=   120.00 Ry     beta=0.30
     Davidson diagonalization with overlap
     ethr =  1.11E-09,  avg # of iterations =  1.0

     total cpu time spent up to now is    20927.6 secs

     total energy              =    -303.19915683 Ry
     Harris-Foulkes estimate   =    -303.19915683 Ry
     estimated scf accuracy    <       0.00000051 Ry

     iteration # 11     ecut=   120.00 Ry     beta=0.30
     Davidson diagonalization with overlap
     ethr =  1.05E-09,  avg # of iterations =  1.0

     total cpu time spent up to now is    21000.1 secs

     total energy              =    -303.19915668 Ry
     Harris-Foulkes estimate   =    -303.19915684 Ry
     estimated scf accuracy    <       0.00000053 Ry

     iteration # 12     ecut=   120.00 Ry     beta=0.30
     Davidson diagonalization with overlap
     ethr =  1.05E-09,  avg # of iterations =  2.0

     total cpu time spent up to now is    21081.3 secs

     total energy              =    -303.19915669 Ry
     Harris-Foulkes estimate   =    -303.19915672 Ry
     estimated scf accuracy    <       0.00000016 Ry

     iteration # 13     ecut=   120.00 Ry     beta=0.30
     Davidson diagonalization with overlap
     ethr =  3.34E-10,  avg # of iterations =  3.0

     total cpu time spent up to now is    21180.4 secs

     total energy              =    -303.19915672 Ry
     Harris-Foulkes estimate   =    -303.19915672 Ry
     estimated scf accuracy    <       0.00000004 Ry

     iteration # 14     ecut=   120.00 Ry     beta=0.30
     Davidson diagonalization with overlap
     ethr =  8.20E-11,  avg # of iterations =  1.6

     total cpu time spent up to now is    21255.4 secs

     total energy              =    -303.19915672 Ry
     Harris-Foulkes estimate   =    -303.19915672 Ry
     estimated scf accuracy    <       0.00000002 Ry

     iteration # 15     ecut=   120.00 Ry     beta=0.30
     Davidson diagonalization with overlap
     ethr =  4.62E-11,  avg # of iterations =  2.1

     total cpu time spent up to now is    21357.9 secs

     total energy              =    -303.19915672 Ry
     Harris-Foulkes estimate   =    -303.19915672 Ry
     estimated scf accuracy    <       0.00000001 Ry

     iteration # 16     ecut=   120.00 Ry     beta=0.30
     Davidson diagonalization with overlap
     ethr =  2.15E-11,  avg # of iterations =  1.0

     total cpu time spent up to now is    21428.9 secs

     End of self-consistent calculation

          k = 0.1254 0.1388 0.1096 ( 21757 PWs)   bands (ev):

   -35.3649 -35.3428 -35.3375 -35.3347 -15.9012 -15.8414 -15.8180 -15.7557
   -15.7198 -15.6947 -15.6911 -15.6582 -15.6488 -15.6451 -15.6352 -15.6311
    -0.1036   1.9259   2.4124   2.8829   3.3673   3.5758   3.8562   4.4616

          k = 0.1254 0.1388 0.3287 ( 21744 PWs)   bands (ev):

   -35.3597 -35.3510 -35.3356 -35.3336 -15.8786 -15.8464 -15.7825 -15.7573
   -15.7348 -15.7078 -15.6834 -15.6701 -15.6593 -15.6438 -15.6419 -15.6368
     0.2996   1.0301   2.6250   2.9723   3.5186   3.5226   4.1218   4.4508

          k = 0.1254 0.4164 0.1096 ( 21747 PWs)   bands (ev):

   -35.3554 -35.3386 -35.3319 -35.3295 -15.8739 -15.8155 -15.8093 -15.7702
   -15.7523 -15.7425 -15.7325 -15.7131 -15.7067 -15.6867 -15.6444 -15.6399
     0.5279   2.2736   2.6770   3.0128   3.4020   3.5467   3.6664   4.1238

          k = 0.1254 0.4164 0.3287 ( 21739 PWs)   bands (ev):

   -35.3514 -35.3446 -35.3305 -35.3288 -15.8574 -15.8347 -15.7911 -15.7747
   -15.7665 -15.7495 -15.7319 -15.7123 -15.6926 -15.6731 -15.6572 -15.6464
     0.8855   1.5262   2.8253   3.0784   3.4652   3.4741   3.8492   4.0941

          k = 0.1254 0.6939 0.1096 ( 21776 PWs)   bands (ev):

   -35.3438 -35.3372 -35.3258 -35.3244 -15.8600 -15.8528 -15.8347 -15.8270
   -15.7939 -15.7806 -15.7573 -15.7255 -15.7013 -15.6742 -15.6655 -15.6547
     1.6149   2.7823   2.8238   3.0354   3.1784   3.3430   3.4748   3.5961

          k = 0.1254 0.6939 0.3287 ( 21767 PWs)   bands (ev):

   -35.3421 -35.3392 -35.3255 -35.3242 -15.8767 -15.8727 -15.8244 -15.8206
   -15.8005 -15.7941 -15.7390 -15.7272 -15.6818 -15.6683 -15.6618 -15.6591
     1.8822   2.3419   2.9680   3.0631   3.1962   3.2822   3.4147   3.4842

          k = 0.3763 0.1388 0.1096 ( 21760 PWs)   bands (ev):

   -35.3568 -35.3452 -35.3406 -35.3372 -15.8797 -15.8703 -15.8312 -15.7403
   -15.6969 -15.6866 -15.6773 -15.6658 -15.6613 -15.6476 -15.6451 -15.6404
     0.4110   1.3079   2.3199   2.8733   3.1897   3.5515   4.2100   4.5194

          k = 0.3763 0.1388 0.3287 ( 21746 PWs)   bands (ev):

   -35.3531 -35.3467 -35.3419 -35.3381 -15.8588 -15.8390 -15.8253 -15.7727
   -15.7080 -15.6994 -15.6748 -15.6630 -15.6576 -15.6512 -15.6502 -15.6444
     0.7804   1.4002   1.7086   2.2142   3.8134   4.0380   4.1437   4.4041

          k = 0.3763 0.4164 0.1096 ( 21742 PWs)   bands (ev):

   -35.3484 -35.3383 -35.3362 -35.3324 -15.8560 -15.8470 -15.8280 -15.7711
   -15.7596 -15.7353 -15.7186 -15.7061 -15.6872 -15.6643 -15.6629 -15.6522
     0.9823   1.7562   2.6207   3.0084   3.3516   3.5543   3.8992   4.0667

          k = 0.3763 0.4164 0.3287 ( 21740 PWs)   bands (ev):

   -35.3456 -35.3405 -35.3362 -35.3331 -15.8523 -15.8402 -15.8267 -15.7971
   -15.7388 -15.7291 -15.7126 -15.7039 -15.6967 -15.6815 -15.6565 -15.6533
     1.3056   1.8325   2.1154   2.5223   3.6860   3.7784   3.9041   4.0424

          k = 0.3763 0.6939 0.1096 ( 21755 PWs)   bands (ev):

   -35.3385 -35.3338 -35.3304 -35.3282 -15.8675 -15.8614 -15.8518 -15.8438
   -15.7792 -15.7616 -15.7538 -15.7370 -15.6825 -15.6686 -15.6612 -15.6597
     1.9496   2.4713   2.9907   3.0397   3.2078   3.2783   3.4661   3.5504

          k = 0.3763 0.6939 0.3287 ( 21750 PWs)   bands (ev):

   -35.3375 -35.3349 -35.3300 -35.3285 -15.8840 -15.8803 -15.8581 -15.8538
   -15.7583 -15.7505 -15.7358 -15.7285 -15.6821 -15.6719 -15.6632 -15.6602
     2.1800   2.5149   2.7661   2.9776   3.1318   3.2283   3.4380   3.4896

          k = 0.1254-0.1388-0.1096 ( 21757 PWs)   bands (ev):

   -35.3649 -35.3430 -35.3366 -35.3353 -15.9013 -15.8411 -15.8183 -15.7563
   -15.7190 -15.6945 -15.6914 -15.6584 -15.6489 -15.6452 -15.6353 -15.6309
    -0.1036   1.9259   2.4123   2.8826   3.3683   3.5752   3.8565   4.4613

          k = 0.1254-0.1388-0.3287 ( 21744 PWs)   bands (ev):

   -35.3596 -35.3511 -35.3352 -35.3339 -15.8787 -15.8460 -15.7830 -15.7576
   -15.7340 -15.7074 -15.6837 -15.6695 -15.6606 -15.6434 -15.6416 -15.6370
     0.2997   1.0300   2.6253   2.9715   3.5197   3.5224   4.1220   4.4502

          k = 0.1254-0.4164-0.1096 ( 21747 PWs)   bands (ev):

   -35.3554 -35.3387 -35.3314 -35.3298 -15.8739 -15.8151 -15.8095 -15.7708
   -15.7516 -15.7434 -15.7320 -15.7130 -15.7061 -15.6872 -15.6448 -15.6396
     0.5279   2.2736   2.6769   3.0125   3.4023   3.5469   3.6664   4.1236

          k = 0.1254-0.4164-0.3287 ( 21739 PWs)   bands (ev):

   -35.3513 -35.3447 -35.3302 -35.3290 -15.8576 -15.8344 -15.7910 -15.7753
   -15.7665 -15.7493 -15.7319 -15.7122 -15.6924 -15.6728 -15.6581 -15.6459
     0.8856   1.5262   2.8257   3.0775   3.4642   3.4759   3.8492   4.0939

          k = 0.1254-0.6939-0.1096 ( 21776 PWs)   bands (ev):

   -35.3437 -35.3372 -35.3257 -35.3244 -15.8602 -15.8519 -15.8360 -15.8267
   -15.7938 -15.7799 -15.7579 -15.7257 -15.7009 -15.6744 -15.6655 -15.6547
     1.6149   2.7823   2.8239   3.0351   3.1788   3.3425   3.4750   3.5961

          k = 0.1254-0.6939-0.3287 ( 21767 PWs)   bands (ev):

   -35.3421 -35.3392 -35.3254 -35.3243 -15.8767 -15.8725 -15.8249 -15.8205
   -15.8005 -15.7937 -15.7393 -15.7271 -15.6816 -15.6684 -15.6623 -15.6587
     1.8822   2.3419   2.9680   3.0632   3.1963   3.2817   3.4153   3.4839

          k = 0.3763-0.1388-0.1096 ( 21760 PWs)   bands (ev):

   -35.3568 -35.3458 -35.3394 -35.3379 -15.8796 -15.8703 -15.8313 -15.7402
   -15.6967 -15.6869 -15.6770 -15.6662 -15.6617 -15.6471 -15.6449 -15.6407
     0.4110   1.3079   2.3195   2.8725   3.1918   3.5509   4.2097   4.5193

          k = 0.3763-0.1388-0.3287 ( 21745 PWs)   bands (ev):

   -35.3528 -35.3476 -35.3404 -35.3390 -15.8587 -15.8384 -15.8263 -15.7722
   -15.7087 -15.6988 -15.6747 -15.6635 -15.6583 -15.6505 -15.6495 -15.6449
     0.7805   1.4001   1.7083   2.2143   3.8147   4.0370   4.1438   4.4037

          k = 0.3763-0.4164-0.1096 ( 21741 PWs)   bands (ev):

   -35.3483 -35.3391 -35.3350 -35.3329 -15.8560 -15.8469 -15.8282 -15.7711
   -15.7597 -15.7353 -15.7175 -15.7073 -15.6868 -15.6645 -15.6631 -15.6519
     0.9823   1.7563   2.6208   3.0070   3.3539   3.5536   3.8990   4.0667

          k = 0.3763-0.4164-0.3287 ( 21740 PWs)   bands (ev):

   -35.3454 -35.3412 -35.3349 -35.3339 -15.8523 -15.8398 -15.8273 -15.7969
   -15.7391 -15.7287 -15.7118 -15.7049 -15.6965 -15.6814 -15.6570 -15.6528
     1.3057   1.8326   2.1153   2.5221   3.6871   3.7777   3.9041   4.0422

          k = 0.3763-0.6939-0.1096 ( 21755 PWs)   bands (ev):

   -35.3385 -35.3340 -35.3301 -35.3284 -15.8675 -15.8609 -15.8523 -15.8438
   -15.7788 -15.7621 -15.7532 -15.7375 -15.6824 -15.6685 -15.6612 -15.6598
     1.9496   2.4713   2.9907   3.0397   3.2080   3.2778   3.4661   3.5506

          k = 0.3763-0.6939-0.3287 ( 21750 PWs)   bands (ev):

   -35.3374 -35.3351 -35.3296 -35.3288 -15.8840 -15.8802 -15.8583 -15.8538
   -15.7579 -15.7505 -15.7360 -15.7286 -15.6821 -15.6720 -15.6629 -15.6605
     2.1799   2.5151   2.7661   2.9774   3.1317   3.2284   3.4379   3.4896

!    total energy              =    -303.19915672 Ry
     Harris-Foulkes estimate   =    -303.19915672 Ry
     estimated scf accuracy    <          4.4E-09 Ry

     The total energy is the sum of the following terms:

     one-electron contribution =    -120.74207542 Ry
     hartree contribution      =      68.07428568 Ry
     xc contribution           =     -46.81652987 Ry
     ewald contribution        =    -203.71483710 Ry

     convergence has been achieved in  16 iterations

     Forces acting on atoms (Ry/au):

     atom    1 type  2   force =    -0.00167501    0.00000000    0.00157066
     atom    2 type  2   force =     0.00157283    0.00000000    0.00136583
     atom    3 type  2   force =    -0.00230464    0.00000000   -0.00106055
     atom    4 type  2   force =     0.00197444    0.00000000   -0.00124049
     atom    5 type  1   force =     0.00026248    0.00000000   -0.00004136
     atom    6 type  1   force =    -0.00013533    0.00000000    0.00000834
     atom    7 type  1   force =     0.00026642    0.00000000   -0.00003912
     atom    8 type  1   force =    -0.00013934    0.00000000    0.00005894
     atom    9 type  1   force =    -0.00009732    0.00000000   -0.00071199
     atom   10 type  1   force =     0.00022575    0.00000000   -0.00069324
     atom   11 type  1   force =    -0.00014292    0.00000000    0.00020915
     atom   12 type  1   force =     0.00019264    0.00000000    0.00057383

     Total force =     0.004811     Total SCF correction =     0.000286


     entering subroutine stress ...

          total   stress  (Ry/bohr**3)                   (kbar)     P=   -0.06
  -0.00000013   0.00000000   0.00000005         -0.02      0.00      0.01
   0.00000000  -0.00000143   0.00000000          0.00     -0.21      0.00
   0.00000005   0.00000000   0.00000030          0.01      0.00      0.04


     Writing output data file CaH2_ambient.save

     init_run     :    295.50s CPU    300.05s WALL (       2 calls)
     electrons    :  13781.75s CPU  14360.17s WALL (      23 calls)
     update_pot   :   2696.71s CPU   2707.94s WALL (      21 calls)
     forces       :   1283.59s CPU   1305.56s WALL (      23 calls)
     stress       :   2805.17s CPU   2837.17s WALL (      23 calls)

     Called by init_run:
     wfcinit      :    175.64s CPU    177.99s WALL (       2 calls)
     potinit      :     54.19s CPU     54.32s WALL (       2 calls)

     Called by electrons:
     c_bands      :  12185.73s CPU  12702.23s WALL (     147 calls)
     sum_band     :   1411.09s CPU   1464.50s WALL (     147 calls)
     v_of_rho     :     87.70s CPU     90.34s WALL (     153 calls)
     mix_rho      :    106.67s CPU    111.87s WALL (     147 calls)

     Called by c_bands:
     init_us_2    :    394.59s CPU    404.21s WALL (    8208 calls)
     cegterg      :  11710.18s CPU  12087.89s WALL (    3528 calls)

     Called by *egterg:
     h_psi        :   8662.49s CPU   8870.22s WALL (   12922 calls)
     g_psi        :     51.23s CPU     52.26s WALL (    9346 calls)
     cdiaghg      :     33.81s CPU     34.65s WALL (   11962 calls)

     Called by h_psi:
     add_vuspsi   :   1013.48s CPU   1037.98s WALL (   12922 calls)

     General routines
     calbec       :   1092.56s CPU   1117.16s WALL (   14026 calls)
     fft          :     30.35s CPU     31.13s WALL (    1899 calls)
     ffts         :     38.86s CPU     40.08s WALL (    2385 calls)
     fftw         :   6169.35s CPU   6316.89s WALL (  555312 calls)
     davcio       :      1.31s CPU    152.51s WALL (   11736 calls)


     PWSCF        :     5h47m CPU        5h58m WALL


   This run was terminated on:  23:36:56  11Jun2014            

=------------------------------------------------------------------------------=
   JOB DONE.
=------------------------------------------------------------------------------=
