
     Program PWSCF v.5.0.2 (svn rev. 9392) starts on 12Jun2014 at  9: 4: 8 

     This program is part of the open-source Quantum ESPRESSO suite
     for quantum simulation of materials; please cite
         "P. Giannozzi et al., J. Phys.:Condens. Matter 21 395502 (2009);
          URL http://www.quantum-espresso.org", 
     in publications or presentations arising from this work. More details at
     http://www.quantum-espresso.org/quote.php

     Serial version

     Current dimensions of program PWSCF are:
     Max number of different atomic species (ntypx) = 10
     Max number of k-points (npk) =  40000
     Max angular momentum in pseudopotentials (lmaxx) =  3
     Waiting for input...
     Reading input from standard input

     G-vector sticks info
     --------------------
     sticks:   dense  smooth     PW     G-vecs:    dense   smooth      PW
     Sum        2573    2573    705               144657   144657   20749



     bravais-lattice index     =            8
     lattice parameter (alat)  =      10.5580  a.u.
     unit-cell volume          =     815.0461 (a.u.)^3
     number of atoms/cell      =           12
     number of atomic types    =            2
     number of electrons       =        48.00
     number of Kohn-Sham states=           24
     kinetic-energy cutoff     =     120.0000  Ry
     charge density cutoff     =     480.0000  Ry
     convergence threshold     =      1.0E-06
     mixing beta               =       0.3000
     number of iterations used =           16  local-TF  mixing
     Exchange-correlation      = BLYP ( 1 3 1 3 0)
     EXX-fraction              =        0.00
     nstep                     =           50


     celldm(1)=  10.558000  celldm(2)=   0.604300  celldm(3)=   1.146000
     celldm(4)=   0.000000  celldm(5)=   0.000000  celldm(6)=   0.000000

     crystal axes: (cart. coord. in units of alat)
               a(1) = (   1.000000   0.000000   0.000000 )  
               a(2) = (   0.000000   0.604300   0.000000 )  
               a(3) = (   0.000000   0.000000   1.146000 )  

     reciprocal axes: (cart. coord. in units 2 pi/alat)
               b(1) = (  1.000000  0.000000  0.000000 )  
               b(2) = (  0.000000  1.654807  0.000000 )  
               b(3) = (  0.000000  0.000000  0.872600 )  


     PseudoPot. # 1 for H  read from file:
     /home/ilia/espresso/pseudo/H.blyp-vbc.UPF
     MD5 check sum: 64d25ad537c4b939b17faee1147b797b
     Pseudo is Norm-conserving, Zval =  1.0
     Generated by new atomic code, or converted to UPF format
     Using radial grid of  243 points,  0 beta functions with: 

     PseudoPot. # 2 for Ca read from file:
     /home/ilia/espresso/pseudo/Ca.blyp-sp-hgh.UPF
     MD5 check sum: 357a6b692114ea82b84239caae8ecfc0
     Pseudo is Norm-conserving, Zval = 10.0
     Generated in analytical, separable form
     Using radial grid of 1169 points,  5 beta functions with: 
                l(1) =   0
                l(2) =   0
                l(3) =   1
                l(4) =   1
                l(5) =   2

     atomic species   valence    mass     pseudopotential
        H              1.00     1.00700     H ( 1.00)
        Ca            10.00    40.07800     Ca( 1.00)

     No symmetry found
          (note:  1 additional sym.ops. were found but ignored
           their fractional translations are incommensurate with FFT grid)


   Cartesian axes

     site n.     atom                  positions (alat units)
         1           Ca  tau(   1) = (   0.2400000   0.1510750   0.1259454  )
         2           Ca  tau(   2) = (   0.2600000  -0.1510750   0.6989454  )
         3           Ca  tau(   3) = (   0.7400000   0.1510750   0.4470546  )
         4           Ca  tau(   4) = (  -0.2400000  -0.1510750  -0.1259454  )
         5           H   tau(   5) = (   0.3557000   0.1510750   0.4887690  )
         6           H   tau(   6) = (   0.1443000  -0.1510750   1.0617690  )
         7           H   tau(   7) = (   0.8557000   0.1510750   0.0842310  )
         8           H   tau(   8) = (  -0.3557000  -0.1510750  -0.4922070  )
         9           H   tau(   9) = (   0.9754000   0.1510750   0.7752690  )
        10           H   tau(  10) = (  -0.4754000  -0.1510750   1.3482690  )
        11           H   tau(  11) = (   1.4754000   0.1510750  -0.1988310  )
        12           H   tau(  12) = (  -0.9754000  -0.1510750  -0.7752690  )

     number of k points=    48
                       cart. coord. in units 2pi/alat
        k(    1) = (   0.1250000   0.1379006   0.1090750), wk =   0.0416667
        k(    2) = (   0.1250000   0.1379006   0.3272251), wk =   0.0416667
        k(    3) = (   0.1250000   0.4137018   0.1090750), wk =   0.0416667
        k(    4) = (   0.1250000   0.4137018   0.3272251), wk =   0.0416667
        k(    5) = (   0.1250000   0.6895030   0.1090750), wk =   0.0416667
        k(    6) = (   0.1250000   0.6895030   0.3272251), wk =   0.0416667
        k(    7) = (   0.3750000   0.1379006   0.1090750), wk =   0.0416667
        k(    8) = (   0.3750000   0.1379006   0.3272251), wk =   0.0416667
        k(    9) = (   0.3750000   0.4137018   0.1090750), wk =   0.0416667
        k(   10) = (   0.3750000   0.4137018   0.3272251), wk =   0.0416667
        k(   11) = (   0.3750000   0.6895030   0.1090750), wk =   0.0416667
        k(   12) = (   0.3750000   0.6895030   0.3272251), wk =   0.0416667
        k(   13) = (  -0.1250000  -0.1379006   0.1090750), wk =   0.0416667
        k(   14) = (  -0.1250000   0.1379006  -0.1090750), wk =   0.0416667
        k(   15) = (   0.1250000  -0.1379006  -0.1090750), wk =   0.0416667
        k(   16) = (  -0.1250000  -0.1379006   0.3272251), wk =   0.0416667
        k(   17) = (  -0.1250000   0.1379006  -0.3272251), wk =   0.0416667
        k(   18) = (   0.1250000  -0.1379006  -0.3272251), wk =   0.0416667
        k(   19) = (  -0.1250000  -0.4137018   0.1090750), wk =   0.0416667
        k(   20) = (  -0.1250000   0.4137018  -0.1090750), wk =   0.0416667
        k(   21) = (   0.1250000  -0.4137018  -0.1090750), wk =   0.0416667
        k(   22) = (  -0.1250000  -0.4137018   0.3272251), wk =   0.0416667
        k(   23) = (  -0.1250000   0.4137018  -0.3272251), wk =   0.0416667
        k(   24) = (   0.1250000  -0.4137018  -0.3272251), wk =   0.0416667
        k(   25) = (  -0.1250000  -0.6895030   0.1090750), wk =   0.0416667
        k(   26) = (  -0.1250000   0.6895030  -0.1090750), wk =   0.0416667
        k(   27) = (   0.1250000  -0.6895030  -0.1090750), wk =   0.0416667
        k(   28) = (  -0.1250000  -0.6895030   0.3272251), wk =   0.0416667
        k(   29) = (  -0.1250000   0.6895030  -0.3272251), wk =   0.0416667
        k(   30) = (   0.1250000  -0.6895030  -0.3272251), wk =   0.0416667
        k(   31) = (  -0.3750000  -0.1379006   0.1090750), wk =   0.0416667
        k(   32) = (  -0.3750000   0.1379006  -0.1090750), wk =   0.0416667
        k(   33) = (   0.3750000  -0.1379006  -0.1090750), wk =   0.0416667
        k(   34) = (  -0.3750000  -0.1379006   0.3272251), wk =   0.0416667
        k(   35) = (  -0.3750000   0.1379006  -0.3272251), wk =   0.0416667
        k(   36) = (   0.3750000  -0.1379006  -0.3272251), wk =   0.0416667
        k(   37) = (  -0.3750000  -0.4137018   0.1090750), wk =   0.0416667
        k(   38) = (  -0.3750000   0.4137018  -0.1090750), wk =   0.0416667
        k(   39) = (   0.3750000  -0.4137018  -0.1090750), wk =   0.0416667
        k(   40) = (  -0.3750000  -0.4137018   0.3272251), wk =   0.0416667
        k(   41) = (  -0.3750000   0.4137018  -0.3272251), wk =   0.0416667
        k(   42) = (   0.3750000  -0.4137018  -0.3272251), wk =   0.0416667
        k(   43) = (  -0.3750000  -0.6895030   0.1090750), wk =   0.0416667
        k(   44) = (  -0.3750000   0.6895030  -0.1090750), wk =   0.0416667
        k(   45) = (   0.3750000  -0.6895030  -0.1090750), wk =   0.0416667
        k(   46) = (  -0.3750000  -0.6895030   0.3272251), wk =   0.0416667
        k(   47) = (  -0.3750000   0.6895030  -0.3272251), wk =   0.0416667
        k(   48) = (   0.3750000  -0.6895030  -0.3272251), wk =   0.0416667

     Dense  grid:   144657 G-vectors     FFT dimensions: (  75,  45,  90)

     Largest allocated arrays     est. size (Mb)     dimensions
        Kohn-Sham Wavefunctions         6.64 Mb     (  18122,   24)
        NL pseudopotentials            14.38 Mb     (  18122,   52)
        Each V/rho on FFT grid          4.63 Mb     ( 303750)
        Each G-vector array             1.10 Mb     ( 144657)
        G-vector shells                 1.10 Mb     ( 144657)
     Largest temporary arrays     est. size (Mb)     dimensions
        Auxiliary wavefunctions        26.55 Mb     (  18122,   96)
        Each subspace H/S matrix        0.14 Mb     (  96,  96)
        Each <psi_i|beta_j> matrix      0.02 Mb     (     52,   24)
        Arrays for rho mixing          74.16 Mb     ( 303750,  16)

     Initial potential from superposition of free atoms

     starting charge   47.97855, renormalised to   48.00000
     Starting wfc are   60 randomized atomic wfcs

     total cpu time spent up to now is      243.2 secs

     per-process dynamical memory:    76.4 Mb

     Self-consistent Calculation

     iteration #  1     ecut=   120.00 Ry     beta=0.30
     Davidson diagonalization with overlap
     ethr =  1.00E-02,  avg # of iterations =  2.0

     total cpu time spent up to now is      403.8 secs

     total energy              =    -303.21088493 Ry
     Harris-Foulkes estimate   =    -303.27032374 Ry
     estimated scf accuracy    <       0.53593020 Ry

     iteration #  2     ecut=   120.00 Ry     beta=0.30
     Davidson diagonalization with overlap
     ethr =  1.12E-03,  avg # of iterations =  1.0

     total cpu time spent up to now is      547.9 secs

     total energy              =    -303.09110740 Ry
     Harris-Foulkes estimate   =    -303.21945400 Ry
     estimated scf accuracy    <       0.33454523 Ry

     iteration #  3     ecut=   120.00 Ry     beta=0.30
     Davidson diagonalization with overlap
     ethr =  6.97E-04,  avg # of iterations =  2.0

     total cpu time spent up to now is      705.2 secs

     total energy              =    -303.13081636 Ry
     Harris-Foulkes estimate   =    -303.13152676 Ry
     estimated scf accuracy    <       0.00935568 Ry

     iteration #  4     ecut=   120.00 Ry     beta=0.30
     Davidson diagonalization with overlap
     ethr =  1.95E-05,  avg # of iterations =  3.1

     total cpu time spent up to now is      884.2 secs

     total energy              =    -303.13373265 Ry
     Harris-Foulkes estimate   =    -303.13322571 Ry
     estimated scf accuracy    <       0.00268670 Ry

     iteration #  5     ecut=   120.00 Ry     beta=0.30
     Davidson diagonalization with overlap
     ethr =  5.60E-06,  avg # of iterations =  3.7

     total cpu time spent up to now is     1069.2 secs

     total energy              =    -303.13435224 Ry
     Harris-Foulkes estimate   =    -303.13443123 Ry
     estimated scf accuracy    <       0.00023374 Ry

     iteration #  6     ecut=   120.00 Ry     beta=0.30
     Davidson diagonalization with overlap
     ethr =  4.87E-07,  avg # of iterations =  3.1

     total cpu time spent up to now is     1253.6 secs

     total energy              =    -303.13443130 Ry
     Harris-Foulkes estimate   =    -303.13441886 Ry
     estimated scf accuracy    <       0.00002098 Ry

     iteration #  7     ecut=   120.00 Ry     beta=0.30
     Davidson diagonalization with overlap
     ethr =  4.37E-08,  avg # of iterations =  3.1

     total cpu time spent up to now is     1446.6 secs

     total energy              =    -303.13443554 Ry
     Harris-Foulkes estimate   =    -303.13443563 Ry
     estimated scf accuracy    <       0.00000178 Ry

     iteration #  8     ecut=   120.00 Ry     beta=0.30
     Davidson diagonalization with overlap
     ethr =  3.70E-09,  avg # of iterations =  3.1

     total cpu time spent up to now is     1686.9 secs

     End of self-consistent calculation

          k = 0.1250 0.1379 0.1091 ( 18078 PWs)   bands (ev):

   -33.1578 -33.1077 -33.0935 -33.0770 -13.8691 -13.7675 -13.7210 -13.5900
   -13.5139 -13.4786 -13.4723 -13.4122 -13.3941 -13.3744 -13.3625 -13.3587
     1.0187   3.4034   3.8456   4.4213   4.8345   5.0437   5.2978   6.0954

          k = 0.1250 0.1379 0.3272 ( 18096 PWs)   bands (ev):

   -33.1476 -33.1218 -33.0923 -33.0746 -13.8250 -13.7626 -13.6523 -13.6071
   -13.5522 -13.5085 -13.4567 -13.4301 -13.4131 -13.3785 -13.3739 -13.3621
     1.5066   2.3704   4.1111   4.5054   4.9966   5.0220   5.5935   6.0228

          k = 0.1250 0.4137 0.1091 ( 18089 PWs)   bands (ev):

   -33.1374 -33.0949 -33.0858 -33.0646 -13.8146 -13.7089 -13.7051 -13.6204
   -13.5873 -13.5645 -13.5439 -13.5034 -13.4902 -13.4704 -13.3853 -13.3722
     1.7741   3.7796   4.1315   4.5174   4.8400   4.9371   5.1505   5.6605

          k = 0.1250 0.4137 0.3272 ( 18122 PWs)   bands (ev):

   -33.1305 -33.1058 -33.0834 -33.0633 -13.7839 -13.7397 -13.6695 -13.6339
   -13.6113 -13.5818 -13.5453 -13.5067 -13.4690 -13.4341 -13.4086 -13.3838
     2.1938   2.9339   4.2953   4.5679   4.8857   4.9100   5.3328   5.5943

          k = 0.1250 0.6895 0.1091 ( 18108 PWs)   bands (ev):

   -33.1143 -33.0846 -33.0782 -33.0520 -13.7933 -13.7733 -13.7401 -13.7205
   -13.6528 -13.6296 -13.5939 -13.5308 -13.4976 -13.4426 -13.4281 -13.3958
     3.0272   4.2901   4.3470   4.4640   4.6322   4.7084   4.8122   5.0202

          k = 0.1250 0.6895 0.3272 ( 18096 PWs)   bands (ev):

   -33.1128 -33.0875 -33.0768 -33.0519 -13.8293 -13.8151 -13.7224 -13.7059
   -13.6696 -13.6473 -13.5615 -13.5330 -13.4564 -13.4332 -13.4155 -13.4043
     3.3141   3.8125   4.4583   4.5304   4.6180   4.6608   4.7619   4.8524

          k = 0.3750 0.1379 0.1091 ( 18069 PWs)   bands (ev):

   -33.1401 -33.1174 -33.0932 -33.0854 -13.8396 -13.8233 -13.7315 -13.5561
   -13.4792 -13.4609 -13.4458 -13.4255 -13.4157 -13.3913 -13.3799 -13.3707
     1.6364   2.6776   3.7846   4.3525   4.6853   5.0508   5.7315   6.0801

          k = 0.3750 0.1379 0.3272 ( 18069 PWs)   bands (ev):

   -33.1333 -33.1184 -33.0982 -33.0863 -13.7955 -13.7568 -13.7277 -13.6260
   -13.5018 -13.4866 -13.4408 -13.4199 -13.4096 -13.3989 -13.3867 -13.3764
     2.0740   2.8074   3.1066   3.6834   5.2965   5.5383   5.6419   5.9487

          k = 0.3750 0.4137 0.1091 ( 18074 PWs)   bands (ev):

   -33.1224 -33.1031 -33.0836 -33.0735 -13.7907 -13.7743 -13.7266 -13.6259
   -13.5973 -13.5526 -13.5119 -13.4889 -13.4586 -13.4277 -13.4108 -13.4034
     2.3024   3.1773   4.1141   4.5452   4.7642   5.0478   5.3559   5.5605

          k = 0.3750 0.4137 0.3272 ( 18089 PWs)   bands (ev):

   -33.1181 -33.1039 -33.0868 -33.0740 -13.7815 -13.7550 -13.7336 -13.6761
   -13.5561 -13.5356 -13.5030 -13.4861 -13.4808 -13.4534 -13.4069 -13.4015
     2.6743   3.2899   3.5361   3.9980   5.1277   5.2571   5.3544   5.5257

          k = 0.3750 0.6895 0.1091 ( 18120 PWs)   bands (ev):

   -33.1036 -33.0886 -33.0754 -33.0615 -13.8053 -13.7909 -13.7757 -13.7566
   -13.6365 -13.5945 -13.5752 -13.5488 -13.4599 -13.4317 -13.4224 -13.4012
     3.3823   3.9209   4.4566   4.5541   4.6444   4.7196   4.8828   4.9809

          k = 0.3750 0.6895 0.3272 ( 18101 PWs)   bands (ev):

   -33.1027 -33.0888 -33.0759 -33.0616 -13.8394 -13.8298 -13.7888 -13.7772
   -13.5883 -13.5664 -13.5439 -13.5303 -13.4606 -13.4405 -13.4207 -13.4076
     3.6191   3.9791   4.1641   4.3682   4.6479   4.7039   4.8605   4.9067

          k =-0.1250-0.1379 0.1091 ( 18078 PWs)   bands (ev):

   -33.1578 -33.1077 -33.0937 -33.0770 -13.8691 -13.7675 -13.7211 -13.5907
   -13.5133 -13.4784 -13.4724 -13.4118 -13.3937 -13.3745 -13.3622 -13.3597
     1.0190   3.3994   3.8502   4.4197   4.8400   5.0363   5.3013   6.0943

          k =-0.1250 0.1379-0.1091 ( 18078 PWs)   bands (ev):

   -33.1578 -33.1077 -33.0935 -33.0770 -13.8691 -13.7675 -13.7210 -13.5900
   -13.5139 -13.4787 -13.4722 -13.4122 -13.3941 -13.3744 -13.3626 -13.3587
     1.0187   3.4034   3.8456   4.4213   4.8345   5.0438   5.2978   6.0954

          k = 0.1250-0.1379-0.1091 ( 18078 PWs)   bands (ev):

   -33.1578 -33.1077 -33.0937 -33.0770 -13.8691 -13.7675 -13.7211 -13.5907
   -13.5133 -13.4786 -13.4723 -13.4118 -13.3938 -13.3745 -13.3621 -13.3598
     1.0190   3.3994   3.8502   4.4197   4.8400   5.0363   5.3013   6.0943

          k =-0.1250-0.1379 0.3272 ( 18096 PWs)   bands (ev):

   -33.1476 -33.1218 -33.0924 -33.0745 -13.8249 -13.7626 -13.6527 -13.6075
   -13.5519 -13.5080 -13.4567 -13.4294 -13.4131 -13.3791 -13.3742 -13.3621
     1.5075   2.3686   4.1147   4.5001   5.0026   5.0191   5.5949   6.0206

          k =-0.1250 0.1379-0.3272 ( 18096 PWs)   bands (ev):

   -33.1476 -33.1218 -33.0923 -33.0746 -13.8250 -13.7626 -13.6523 -13.6071
   -13.5522 -13.5084 -13.4567 -13.4301 -13.4131 -13.3785 -13.3739 -13.3621
     1.5066   2.3703   4.1111   4.5054   4.9966   5.0220   5.5935   6.0228

          k = 0.1250-0.1379-0.3272 ( 18096 PWs)   bands (ev):

   -33.1476 -33.1218 -33.0924 -33.0745 -13.8249 -13.7625 -13.6527 -13.6075
   -13.5520 -13.5081 -13.4567 -13.4294 -13.4130 -13.3791 -13.3742 -13.3620
     1.5075   2.3686   4.1147   4.5001   5.0026   5.0191   5.5949   6.0206

          k =-0.1250-0.4137 0.1091 ( 18089 PWs)   bands (ev):

   -33.1374 -33.0948 -33.0859 -33.0646 -13.8146 -13.7082 -13.7057 -13.6206
   -13.5874 -13.5641 -13.5442 -13.5039 -13.4901 -13.4697 -13.3847 -13.3730
     1.7743   3.7776   4.1357   4.5132   4.8435   4.9338   5.1522   5.6603

          k =-0.1250 0.4137-0.1091 ( 18089 PWs)   bands (ev):

   -33.1374 -33.0949 -33.0858 -33.0646 -13.8146 -13.7089 -13.7051 -13.6203
   -13.5873 -13.5644 -13.5439 -13.5034 -13.4903 -13.4704 -13.3854 -13.3722
     1.7741   3.7795   4.1315   4.5174   4.8400   4.9371   5.1505   5.6605

          k = 0.1250-0.4137-0.1091 ( 18089 PWs)   bands (ev):

   -33.1374 -33.0948 -33.0859 -33.0646 -13.8146 -13.7082 -13.7056 -13.6206
   -13.5875 -13.5641 -13.5442 -13.5039 -13.4901 -13.4696 -13.3846 -13.3731
     1.7743   3.7776   4.1357   4.5132   4.8435   4.9338   5.1522   5.6603

          k =-0.1250-0.4137 0.3272 ( 18122 PWs)   bands (ev):

   -33.1305 -33.1058 -33.0835 -33.0632 -13.7839 -13.7396 -13.6699 -13.6337
   -13.6116 -13.5816 -13.5452 -13.5067 -13.4697 -13.4329 -13.4080 -13.3849
     2.1943   2.9330   4.3000   4.5601   4.8900   4.9090   5.3334   5.5938

          k =-0.1250 0.4137-0.3272 ( 18122 PWs)   bands (ev):

   -33.1305 -33.1058 -33.0834 -33.0633 -13.7839 -13.7397 -13.6696 -13.6339
   -13.6112 -13.5817 -13.5452 -13.5068 -13.4689 -13.4340 -13.4087 -13.3838
     2.1938   2.9339   4.2953   4.5679   4.8857   4.9100   5.3328   5.5943

          k = 0.1250-0.4137-0.3272 ( 18122 PWs)   bands (ev):

   -33.1305 -33.1058 -33.0835 -33.0632 -13.7839 -13.7395 -13.6697 -13.6338
   -13.6115 -13.5817 -13.5453 -13.5066 -13.4698 -13.4329 -13.4079 -13.3848
     2.1943   2.9330   4.3000   4.5601   4.8900   4.9090   5.3334   5.5938

          k =-0.1250-0.6895 0.1091 ( 18108 PWs)   bands (ev):

   -33.1143 -33.0846 -33.0782 -33.0520 -13.7933 -13.7732 -13.7406 -13.7202
   -13.6525 -13.6293 -13.5943 -13.5307 -13.4981 -13.4420 -13.4284 -13.3957
     3.0271   4.2908   4.3470   4.4651   4.6358   4.7016   4.8132   5.0205

          k =-0.1250 0.6895-0.1091 ( 18108 PWs)   bands (ev):

   -33.1143 -33.0846 -33.0782 -33.0520 -13.7934 -13.7733 -13.7401 -13.7205
   -13.6528 -13.6297 -13.5938 -13.5309 -13.4975 -13.4425 -13.4282 -13.3958
     3.0272   4.2901   4.3470   4.4640   4.6323   4.7084   4.8122   5.0202

          k = 0.1250-0.6895-0.1091 ( 18108 PWs)   bands (ev):

   -33.1143 -33.0846 -33.0782 -33.0520 -13.7932 -13.7733 -13.7406 -13.7202
   -13.6525 -13.6293 -13.5944 -13.5307 -13.4981 -13.4420 -13.4284 -13.3958
     3.0271   4.2908   4.3470   4.4651   4.6358   4.7016   4.8132   5.0205

          k =-0.1250-0.6895 0.3272 ( 18096 PWs)   bands (ev):

   -33.1128 -33.0875 -33.0768 -33.0519 -13.8293 -13.8151 -13.7226 -13.7058
   -13.6692 -13.6473 -13.5617 -13.5330 -13.4575 -13.4317 -13.4157 -13.4046
     3.3139   3.8130   4.4604   4.5321   4.6128   4.6601   4.7643   4.8514

          k =-0.1250 0.6895-0.3272 ( 18096 PWs)   bands (ev):

   -33.1128 -33.0875 -33.0768 -33.0519 -13.8293 -13.8151 -13.7224 -13.7059
   -13.6696 -13.6473 -13.5614 -13.5331 -13.4564 -13.4332 -13.4156 -13.4043
     3.3141   3.8125   4.4583   4.5304   4.6180   4.6608   4.7619   4.8524

          k = 0.1250-0.6895-0.3272 ( 18096 PWs)   bands (ev):

   -33.1128 -33.0875 -33.0768 -33.0519 -13.8292 -13.8152 -13.7226 -13.7058
   -13.6692 -13.6474 -13.5617 -13.5329 -13.4576 -13.4317 -13.4156 -13.4046
     3.3139   3.8130   4.4604   4.5321   4.6128   4.6602   4.7643   4.8514

          k =-0.3750-0.1379 0.1091 ( 18069 PWs)   bands (ev):

   -33.1402 -33.1173 -33.0935 -33.0852 -13.8394 -13.8236 -13.7314 -13.5559
   -13.4801 -13.4606 -13.4454 -13.4248 -13.4159 -13.3919 -13.3802 -13.3705
     1.6370   2.6768   3.7793   4.3633   4.6817   5.0499   5.7303   6.0801

          k =-0.3750 0.1379-0.1091 ( 18069 PWs)   bands (ev):

   -33.1401 -33.1174 -33.0932 -33.0854 -13.8396 -13.8233 -13.7315 -13.5561
   -13.4792 -13.4609 -13.4459 -13.4254 -13.4156 -13.3914 -13.3799 -13.3707
     1.6364   2.6776   3.7846   4.3525   4.6853   5.0508   5.7315   6.0801

          k = 0.3750-0.1379-0.1091 ( 18069 PWs)   bands (ev):

   -33.1402 -33.1173 -33.0935 -33.0852 -13.8394 -13.8236 -13.7314 -13.5559
   -13.4801 -13.4605 -13.4455 -13.4248 -13.4158 -13.3920 -13.3802 -13.3704
     1.6370   2.6768   3.7793   4.3633   4.6817   5.0499   5.7303   6.0801

          k =-0.3750-0.1379 0.3272 ( 18069 PWs)   bands (ev):

   -33.1334 -33.1183 -33.0984 -33.0862 -13.7952 -13.7575 -13.7275 -13.6256
   -13.5027 -13.4860 -13.4407 -13.4195 -13.4090 -13.3998 -13.3870 -13.3761
     2.0763   2.8004   3.1098   3.6846   5.3041   5.5252   5.6487   5.9473

          k =-0.3750 0.1379-0.3272 ( 18069 PWs)   bands (ev):

   -33.1333 -33.1184 -33.0982 -33.0863 -13.7955 -13.7568 -13.7277 -13.6260
   -13.5019 -13.4865 -13.4409 -13.4199 -13.4095 -13.3989 -13.3867 -13.3764
     2.0740   2.8074   3.1066   3.6833   5.2965   5.5383   5.6419   5.9487

          k = 0.3750-0.1379-0.3272 ( 18069 PWs)   bands (ev):

   -33.1334 -33.1183 -33.0984 -33.0862 -13.7952 -13.7575 -13.7275 -13.6256
   -13.5027 -13.4860 -13.4407 -13.4195 -13.4091 -13.3999 -13.3870 -13.3761
     2.0763   2.8004   3.1098   3.6847   5.3041   5.5252   5.6487   5.9473

          k =-0.3750-0.4137 0.1091 ( 18074 PWs)   bands (ev):

   -33.1224 -33.1031 -33.0838 -33.0734 -13.7906 -13.7746 -13.7265 -13.6258
   -13.5971 -13.5525 -13.5122 -13.4887 -13.4593 -13.4267 -13.4106 -13.4040
     2.3028   3.1770   4.1144   4.5386   4.7728   5.0461   5.3552   5.5605

          k =-0.3750 0.4137-0.1091 ( 18074 PWs)   bands (ev):

   -33.1224 -33.1031 -33.0836 -33.0735 -13.7908 -13.7743 -13.7265 -13.6259
   -13.5973 -13.5526 -13.5119 -13.4890 -13.4585 -13.4277 -13.4109 -13.4034
     2.3024   3.1773   4.1141   4.5452   4.7642   5.0478   5.3559   5.5605

          k = 0.3750-0.4137-0.1091 ( 18074 PWs)   bands (ev):

   -33.1224 -33.1031 -33.0838 -33.0734 -13.7906 -13.7745 -13.7265 -13.6259
   -13.5972 -13.5526 -13.5123 -13.4887 -13.4592 -13.4267 -13.4106 -13.4040
     2.3028   3.1770   4.1144   4.5386   4.7728   5.0461   5.3552   5.5605

          k =-0.3750-0.4137 0.3272 ( 18089 PWs)   bands (ev):

   -33.1181 -33.1038 -33.0869 -33.0740 -13.7814 -13.7552 -13.7337 -13.6758
   -13.5559 -13.5353 -13.5037 -13.4863 -13.4809 -13.4528 -13.4061 -13.4024
     2.6755   3.2857   3.5404   3.9958   5.1351   5.2469   5.3591   5.5248

          k =-0.3750 0.4137-0.3272 ( 18089 PWs)   bands (ev):

   -33.1181 -33.1039 -33.0868 -33.0740 -13.7816 -13.7549 -13.7336 -13.6760
   -13.5560 -13.5356 -13.5029 -13.4862 -13.4808 -13.4534 -13.4069 -13.4015
     2.6743   3.2898   3.5361   3.9980   5.1278   5.2571   5.3544   5.5257

          k = 0.3750-0.4137-0.3272 ( 18089 PWs)   bands (ev):

   -33.1181 -33.1038 -33.0869 -33.0740 -13.7813 -13.7553 -13.7337 -13.6759
   -13.5559 -13.5355 -13.5037 -13.4863 -13.4808 -13.4528 -13.4060 -13.4024
     2.6755   3.2857   3.5404   3.9958   5.1351   5.2469   5.3591   5.5248

          k =-0.3750-0.6895 0.1091 ( 18120 PWs)   bands (ev):

   -33.1036 -33.0886 -33.0755 -33.0615 -13.8054 -13.7909 -13.7759 -13.7565
   -13.6359 -13.5949 -13.5751 -13.5489 -13.4602 -13.4319 -13.4220 -13.4011
     3.3821   3.9216   4.4578   4.5581   4.6401   4.7169   4.8822   4.9827

          k =-0.3750 0.6895-0.1091 ( 18120 PWs)   bands (ev):

   -33.1036 -33.0886 -33.0754 -33.0615 -13.8054 -13.7909 -13.7757 -13.7566
   -13.6364 -13.5944 -13.5751 -13.5489 -13.4598 -13.4318 -13.4224 -13.4012
     3.3824   3.9209   4.4566   4.5541   4.6444   4.7196   4.8828   4.9809

          k = 0.3750-0.6895-0.1091 ( 18120 PWs)   bands (ev):

   -33.1036 -33.0886 -33.0755 -33.0615 -13.8054 -13.7909 -13.7759 -13.7565
   -13.6360 -13.5950 -13.5751 -13.5489 -13.4601 -13.4319 -13.4220 -13.4011
     3.3821   3.9216   4.4578   4.5581   4.6401   4.7169   4.8822   4.9827

          k =-0.3750-0.6895 0.3272 ( 18101 PWs)   bands (ev):

   -33.1028 -33.0887 -33.0760 -33.0616 -13.8394 -13.8298 -13.7889 -13.7770
   -13.5875 -13.5667 -13.5445 -13.5301 -13.4612 -13.4398 -13.4211 -13.4073
     3.6182   3.9797   4.1697   4.3627   4.6461   4.7058   4.8596   4.9076

          k =-0.3750 0.6895-0.3272 ( 18101 PWs)   bands (ev):

   -33.1027 -33.0888 -33.0759 -33.0616 -13.8394 -13.8297 -13.7889 -13.7771
   -13.5882 -13.5664 -13.5438 -13.5304 -13.4605 -13.4406 -13.4207 -13.4076
     3.6191   3.9791   4.1641   4.3682   4.6479   4.7039   4.8605   4.9067

          k = 0.3750-0.6895-0.3272 ( 18101 PWs)   bands (ev):

   -33.1028 -33.0887 -33.0760 -33.0616 -13.8394 -13.8299 -13.7889 -13.7771
   -13.5875 -13.5667 -13.5446 -13.5300 -13.4612 -13.4398 -13.4211 -13.4073
     3.6182   3.9797   4.1697   4.3627   4.6462   4.7059   4.8596   4.9076

!    total energy              =    -303.13443646 Ry
     Harris-Foulkes estimate   =    -303.13443611 Ry
     estimated scf accuracy    <       0.00000047 Ry

     The total energy is the sum of the following terms:

     one-electron contribution =    -101.25594857 Ry
     hartree contribution      =      62.12990863 Ry
     xc contribution           =     -47.36989031 Ry
     ewald contribution        =    -216.63850622 Ry

     convergence has been achieved in   8 iterations

     Forces acting on atoms (Ry/au):

     atom    1 type  2   force =     0.00192974   -0.00111383    0.00641826
     atom    2 type  2   force =    -0.00226396   -0.00001564    0.00474684
     atom    3 type  2   force =     0.00295142    0.00001407   -0.00695142
     atom    4 type  2   force =    -0.00269273    0.00111628   -0.00635846
     atom    5 type  1   force =    -0.00139483   -0.00000095    0.00047077
     atom    6 type  1   force =     0.00116865    0.00000044   -0.00014409
     atom    7 type  1   force =    -0.00119894   -0.00000082   -0.00012677
     atom    8 type  1   force =     0.00090204    0.00000072    0.00442653
     atom    9 type  1   force =    -0.00070270   -0.00001252    0.00351160
     atom   10 type  1   force =     0.00056835    0.00001209    0.00344350
     atom   11 type  1   force =    -0.00006604   -0.00001247   -0.00600610
     atom   12 type  1   force =     0.00079901    0.00001263   -0.00343067

     Total force =     0.016619     Total SCF correction =     0.002522
     SCF correction compared to forces is large: reduce conv_thr to get better values


     entering subroutine stress ...

          total   stress  (Ry/bohr**3)                   (kbar)     P=  121.57
   0.00078626  -0.00000000  -0.00000407        115.66     -0.00     -0.60
  -0.00000000   0.00083857   0.00000006         -0.00    123.36      0.01
  -0.00000407   0.00000006   0.00085433         -0.60      0.01    125.68


     BFGS Geometry Optimization

     number of scf cycles    =   1
     number of bfgs steps    =   0

     enthalpy new            =    -302.5803792771 Ry

     new trust radius        =       0.0249226049 bohr
     new conv_thr            =       0.0000010000 Ry

     new unit-cell volume =    824.03995 a.u.^3 (   122.11012 Ang^3 )

CELL_PARAMETERS (alat= 10.55800000)
   1.002661902  -0.000000013  -0.000101636
  -0.000000008   0.606698832   0.000000937
  -0.000116475   0.000001777   1.151000796

ATOMIC_POSITIONS (crystal)
Ca       0.240182775   0.250000000   0.110430458    1   0   1
Ca       0.259785569  -0.250000000   0.610292318    1   0   1
Ca       0.740279543   0.250000000   0.389525478    1   0   1
Ca      -0.240255041  -0.250000000  -0.110425516    1   0   1
H        0.355567889   0.250000000   0.426538908    1   0   1
H        0.144410688  -0.250000000   0.926488091    1   0   1
H        0.855586442   0.250000000   0.073489523    1   0   1
H       -0.355614563  -0.250000000  -0.429134155    1   0   1
H        0.975333444   0.250000000   0.676790228    1   0   1
H       -0.475346169  -0.250000000   1.176784599    1   0   1
H        1.475393745   0.250000000  -0.173996394    1   0   1
H       -0.975324322  -0.250000000  -0.676783539    1   0   1



     Writing output data file CaH2_ambient.save
     NEW-OLD atomic charge density approx. for the potential
     NEW k-points:
        k(    1) = (   0.1246792   0.1373552   0.1086135), wk =   0.0416667
        k(    2) = (   0.1247012   0.1373549   0.3258158), wk =   0.0416667
        k(    3) = (   0.1246792   0.4120659   0.1086131), wk =   0.0416667
        k(    4) = (   0.1247012   0.4120656   0.3258154), wk =   0.0416667
        k(    5) = (   0.1246792   0.6867766   0.1086127), wk =   0.0416667
        k(    6) = (   0.1247012   0.6867763   0.3258150), wk =   0.0416667
        k(    7) = (   0.3740155   0.1373552   0.1086388), wk =   0.0416667
        k(    8) = (   0.3740375   0.1373549   0.3258411), wk =   0.0416667
        k(    9) = (   0.3740155   0.4120659   0.1086384), wk =   0.0416667
        k(   10) = (   0.3740375   0.4120656   0.3258406), wk =   0.0416667
        k(   11) = (   0.3740155   0.6867766   0.1086379), wk =   0.0416667
        k(   12) = (   0.3740375   0.6867763   0.3258402), wk =   0.0416667
        k(   13) = (  -0.1246571  -0.1373555   0.1085887), wk =   0.0416667
        k(   14) = (  -0.1246792   0.1373555  -0.1086140), wk =   0.0416667
        k(   15) = (   0.1246571  -0.1373552  -0.1085883), wk =   0.0416667
        k(   16) = (  -0.1246351  -0.1373559   0.3257910), wk =   0.0416667
        k(   17) = (  -0.1247012   0.1373559  -0.3258163), wk =   0.0416667
        k(   18) = (   0.1246351  -0.1373549  -0.3257906), wk =   0.0416667
        k(   19) = (  -0.1246571  -0.4120662   0.1085892), wk =   0.0416667
        k(   20) = (  -0.1246791   0.4120662  -0.1086144), wk =   0.0416667
        k(   21) = (   0.1246571  -0.4120659  -0.1085879), wk =   0.0416667
        k(   22) = (  -0.1246351  -0.4120666   0.3257914), wk =   0.0416667
        k(   23) = (  -0.1247012   0.4120666  -0.3258167), wk =   0.0416667
        k(   24) = (   0.1246351  -0.4120656  -0.3257902), wk =   0.0416667
        k(   25) = (  -0.1246571  -0.6867769   0.1085896), wk =   0.0416667
        k(   26) = (  -0.1246791   0.6867769  -0.1086148), wk =   0.0416667
        k(   27) = (   0.1246571  -0.6867766  -0.1085875), wk =   0.0416667
        k(   28) = (  -0.1246351  -0.6867773   0.3257919), wk =   0.0416667
        k(   29) = (  -0.1247012   0.6867773  -0.3258171), wk =   0.0416667
        k(   30) = (   0.1246351  -0.6867763  -0.3257898), wk =   0.0416667
        k(   31) = (  -0.3739934  -0.1373555   0.1085635), wk =   0.0416667
        k(   32) = (  -0.3740154   0.1373555  -0.1086392), wk =   0.0416667
        k(   33) = (   0.3739934  -0.1373552  -0.1085631), wk =   0.0416667
        k(   34) = (  -0.3739714  -0.1373559   0.3257658), wk =   0.0416667
        k(   35) = (  -0.3740375   0.1373559  -0.3258415), wk =   0.0416667
        k(   36) = (   0.3739714  -0.1373548  -0.3257654), wk =   0.0416667
        k(   37) = (  -0.3739934  -0.4120662   0.1085639), wk =   0.0416667
        k(   38) = (  -0.3740154   0.4120662  -0.1086396), wk =   0.0416667
        k(   39) = (   0.3739934  -0.4120659  -0.1085627), wk =   0.0416667
        k(   40) = (  -0.3739714  -0.4120666   0.3257662), wk =   0.0416667
        k(   41) = (  -0.3740375   0.4120666  -0.3258419), wk =   0.0416667
        k(   42) = (   0.3739714  -0.4120656  -0.3257649), wk =   0.0416667
        k(   43) = (  -0.3739934  -0.6867769   0.1085644), wk =   0.0416667
        k(   44) = (  -0.3740154   0.6867769  -0.1086400), wk =   0.0416667
        k(   45) = (   0.3739934  -0.6867766  -0.1085622), wk =   0.0416667
        k(   46) = (  -0.3739714  -0.6867773   0.3257666), wk =   0.0416667
        k(   47) = (  -0.3740375   0.6867773  -0.3258423), wk =   0.0416667
        k(   48) = (   0.3739714  -0.6867763  -0.3257645), wk =   0.0416667
     extrapolated charge   48.52365, renormalised to   48.00000

     total cpu time spent up to now is     2000.7 secs

     per-process dynamical memory:   102.5 Mb

     Self-consistent Calculation

     iteration #  1     ecut=   120.00 Ry     beta=0.30
     Davidson diagonalization with overlap
     ethr =  1.00E-06,  avg # of iterations =  5.0

     total cpu time spent up to now is     2339.9 secs

     total energy              =    -303.13484938 Ry
     Harris-Foulkes estimate   =    -302.44287595 Ry
     estimated scf accuracy    <       0.00469679 Ry

     iteration #  2     ecut=   120.00 Ry     beta=0.30
     Davidson diagonalization with overlap
     ethr =  9.78E-06,  avg # of iterations =  3.1

     total cpu time spent up to now is     2556.4 secs

     total energy              =    -303.14116237 Ry
     Harris-Foulkes estimate   =    -303.14063280 Ry
     estimated scf accuracy    <       0.00020796 Ry

     iteration #  3     ecut=   120.00 Ry     beta=0.30
     Davidson diagonalization with overlap
     ethr =  4.33E-07,  avg # of iterations =  1.8

     total cpu time spent up to now is     2694.4 secs

     total energy              =    -303.14183788 Ry
     Harris-Foulkes estimate   =    -303.14117326 Ry
     estimated scf accuracy    <       0.00013722 Ry

     iteration #  4     ecut=   120.00 Ry     beta=0.30
     Davidson diagonalization with overlap
     ethr =  2.86E-07,  avg # of iterations =  2.0

     total cpu time spent up to now is     2856.1 secs

     total energy              =    -303.14185214 Ry
     Harris-Foulkes estimate   =    -303.14185430 Ry
     estimated scf accuracy    <       0.00000772 Ry

     iteration #  5     ecut=   120.00 Ry     beta=0.30
     Davidson diagonalization with overlap
     ethr =  1.61E-08,  avg # of iterations =  3.5

     total cpu time spent up to now is     3035.8 secs

     total energy              =    -303.14184801 Ry
     Harris-Foulkes estimate   =    -303.14185468 Ry
     estimated scf accuracy    <       0.00000349 Ry

     iteration #  6     ecut=   120.00 Ry     beta=0.30
     Davidson diagonalization with overlap
     ethr =  7.27E-09,  avg # of iterations =  2.1

     total cpu time spent up to now is     3217.9 secs

     End of self-consistent calculation

          k = 0.1247 0.1374 0.1086 ( 18078 PWs)   bands (ev):

   -33.2961 -33.2479 -33.2355 -33.2199 -13.9963 -13.8962 -13.8524 -13.7264
   -13.6536 -13.6193 -13.6124 -13.5541 -13.5367 -13.5187 -13.5071 -13.5034
     0.9415   3.3020   3.7538   4.3147   4.7459   4.9489   5.2071   5.9930

          k = 0.1247 0.1374 0.3258 ( 18096 PWs)   bands (ev):

   -33.2862 -33.2621 -33.2337 -33.2176 -13.9538 -13.8941 -13.7857 -13.7413
   -13.6905 -13.6468 -13.5973 -13.5719 -13.5551 -13.5224 -13.5179 -13.5071
     1.4232   2.2773   4.0159   4.4090   4.9007   4.9285   5.4968   5.9194

          k = 0.1247 0.4121 0.1086 ( 18089 PWs)   bands (ev):

   -33.2767 -33.2360 -33.2278 -33.2081 -13.9439 -13.8411 -13.8365 -13.7546
   -13.7229 -13.7024 -13.6810 -13.6429 -13.6311 -13.6098 -13.5283 -13.5163
     1.6879   3.6766   4.0362   4.4153   4.7517   4.8461   5.0519   5.5634

          k = 0.1247 0.4121 0.3258 ( 18122 PWs)   bands (ev):

   -33.2699 -33.2470 -33.2251 -33.2069 -13.9141 -13.8718 -13.8017 -13.7674
   -13.7471 -13.7175 -13.6827 -13.6459 -13.6096 -13.5755 -13.5510 -13.5275
     2.1034   2.8365   4.1999   4.4732   4.7935   4.8186   5.2333   5.4951

          k = 0.1247 0.6868 0.1086 ( 18108 PWs)   bands (ev):

   -33.2545 -33.2275 -33.2195 -33.1962 -13.9208 -13.9027 -13.8697 -13.8517
   -13.7877 -13.7664 -13.7308 -13.6701 -13.6361 -13.5826 -13.5696 -13.5388
     2.9298   4.1916   4.2426   4.3704   4.5363   4.6187   4.7226   4.9276

          k = 0.1247 0.6868 0.3258 ( 18096 PWs)   bands (ev):

   -33.2530 -33.2301 -33.2184 -33.1961 -13.9551 -13.9423 -13.8518 -13.8370
   -13.8045 -13.7851 -13.6989 -13.6723 -13.5967 -13.5736 -13.5577 -13.5471
     3.2163   3.7134   4.3651   4.4336   4.5275   4.5646   4.6715   4.7596

          k = 0.3740 0.1374 0.1086 ( 18069 PWs)   bands (ev):

   -33.2791 -33.2569 -33.2353 -33.2282 -13.9667 -13.9507 -13.8642 -13.6944
   -13.6190 -13.6014 -13.5870 -13.5670 -13.5573 -13.5343 -13.5241 -13.5155
     1.5534   2.5870   3.6862   4.2620   4.5786   4.9528   5.6387   5.9854

          k = 0.3740 0.1374 0.3258 ( 18069 PWs)   bands (ev):

   -33.2724 -33.2579 -33.2401 -33.2291 -13.9249 -13.8871 -13.8601 -13.7618
   -13.6402 -13.6260 -13.5818 -13.5613 -13.5515 -13.5416 -13.5307 -13.5210
     1.9864   2.7118   3.0135   3.5876   5.1998   5.4476   5.5434   5.8503

          k = 0.3740 0.4121 0.1086 ( 18074 PWs)   bands (ev):

   -33.2622 -33.2433 -33.2262 -33.2169 -13.9199 -13.9036 -13.8591 -13.7599
   -13.7327 -13.6890 -13.6519 -13.6297 -13.5998 -13.5685 -13.5534 -13.5458
     2.2125   3.0824   4.0131   4.4466   4.6671   4.9486   5.2653   5.4678

          k = 0.3740 0.4121 0.3258 ( 18089 PWs)   bands (ev):

   -33.2580 -33.2441 -33.2292 -33.2174 -13.9111 -13.8857 -13.8644 -13.8088
   -13.6932 -13.6739 -13.6429 -13.6263 -13.6207 -13.5939 -13.5489 -13.5442
     2.5815   3.1909   3.4411   3.9013   5.0344   5.1666   5.2566   5.4288

          k = 0.3740 0.6868 0.1086 ( 18120 PWs)   bands (ev):

   -33.2441 -33.2295 -33.2186 -33.2056 -13.9329 -13.9194 -13.9035 -13.8857
   -13.7718 -13.7316 -13.7140 -13.6881 -13.5997 -13.5731 -13.5632 -13.5442
     3.2851   3.8244   4.3585   4.4622   4.5438   4.6197   4.7917   4.8878

          k = 0.3740 0.6868 0.3258 ( 18101 PWs)   bands (ev):

   -33.2433 -33.2296 -33.2191 -33.2057 -13.9655 -13.9566 -13.9162 -13.9054
   -13.7260 -13.7058 -13.6834 -13.6703 -13.6000 -13.5809 -13.5622 -13.5502
     3.5231   3.8828   4.0722   4.2810   4.5441   4.6063   4.7644   4.8113

          k =-0.1247-0.1374 0.1086 ( 18078 PWs)   bands (ev):

   -33.2961 -33.2479 -33.2355 -33.2200 -13.9963 -13.8960 -13.8526 -13.7271
   -13.6529 -13.6192 -13.6126 -13.5538 -13.5365 -13.5188 -13.5069 -13.5041
     0.9417   3.2987   3.7581   4.3131   4.7511   4.9416   5.2103   5.9921

          k =-0.1247 0.1374-0.1086 ( 18078 PWs)   bands (ev):

   -33.2961 -33.2479 -33.2355 -33.2199 -13.9962 -13.8962 -13.8524 -13.7264
   -13.6536 -13.6194 -13.6123 -13.5541 -13.5366 -13.5187 -13.5071 -13.5033
     0.9415   3.3020   3.7538   4.3147   4.7459   4.9489   5.2071   5.9930

          k = 0.1247-0.1374-0.1086 ( 18078 PWs)   bands (ev):

   -33.2961 -33.2479 -33.2355 -33.2200 -13.9963 -13.8960 -13.8526 -13.7271
   -13.6529 -13.6193 -13.6125 -13.5538 -13.5365 -13.5188 -13.5068 -13.5041
     0.9416   3.2987   3.7581   4.3130   4.7511   4.9416   5.2103   5.9921

          k =-0.1246-0.1374 0.3258 ( 18096 PWs)   bands (ev):

   -33.2862 -33.2621 -33.2337 -33.2176 -13.9539 -13.8936 -13.7862 -13.7418
   -13.6900 -13.6463 -13.5974 -13.5709 -13.5557 -13.5227 -13.5180 -13.5071
     1.4239   2.2760   4.0201   4.4029   4.9086   4.9240   5.4976   5.9176

          k =-0.1247 0.1374-0.3258 ( 18096 PWs)   bands (ev):

   -33.2862 -33.2621 -33.2337 -33.2176 -13.9538 -13.8941 -13.7857 -13.7413
   -13.6905 -13.6467 -13.5973 -13.5719 -13.5551 -13.5224 -13.5179 -13.5071
     1.4232   2.2773   4.0159   4.4090   4.9007   4.9285   5.4968   5.9194

          k = 0.1246-0.1374-0.3258 ( 18096 PWs)   bands (ev):

   -33.2862 -33.2621 -33.2337 -33.2176 -13.9539 -13.8936 -13.7862 -13.7418
   -13.6900 -13.6463 -13.5974 -13.5709 -13.5556 -13.5227 -13.5180 -13.5071
     1.4238   2.2760   4.0201   4.4029   4.9086   4.9240   5.4976   5.9176

          k =-0.1247-0.4121 0.1086 ( 18089 PWs)   bands (ev):

   -33.2767 -33.2360 -33.2278 -33.2081 -13.9440 -13.8404 -13.8370 -13.7551
   -13.7226 -13.7026 -13.6809 -13.6431 -13.6308 -13.6095 -13.5280 -13.5168
     1.6880   3.6752   4.0401   4.4113   4.7546   4.8431   5.0534   5.5633

          k =-0.1247 0.4121-0.1086 ( 18089 PWs)   bands (ev):

   -33.2767 -33.2360 -33.2278 -33.2081 -13.9439 -13.8411 -13.8365 -13.7545
   -13.7230 -13.7024 -13.6810 -13.6428 -13.6312 -13.6097 -13.5284 -13.5162
     1.6879   3.6766   4.0362   4.4153   4.7517   4.8461   5.0519   5.5634

          k = 0.1247-0.4121-0.1086 ( 18089 PWs)   bands (ev):

   -33.2767 -33.2360 -33.2278 -33.2081 -13.9440 -13.8403 -13.8370 -13.7551
   -13.7227 -13.7026 -13.6810 -13.6431 -13.6308 -13.6095 -13.5279 -13.5168
     1.6880   3.6752   4.0401   4.4113   4.7546   4.8431   5.0534   5.5633

          k =-0.1246-0.4121 0.3258 ( 18122 PWs)   bands (ev):

   -33.2699 -33.2470 -33.2251 -33.2069 -13.9143 -13.8714 -13.8020 -13.7674
   -13.7474 -13.7173 -13.6826 -13.6460 -13.6100 -13.5746 -13.5508 -13.5281
     2.1036   2.8359   4.2050   4.4649   4.7988   4.8167   5.2335   5.4950

          k =-0.1247 0.4121-0.3258 ( 18122 PWs)   bands (ev):

   -33.2699 -33.2470 -33.2251 -33.2069 -13.9141 -13.8719 -13.8018 -13.7674
   -13.7471 -13.7174 -13.6826 -13.6460 -13.6095 -13.5755 -13.5510 -13.5275
     2.1034   2.8365   4.1999   4.4732   4.7935   4.8186   5.2333   5.4951

          k = 0.1246-0.4121-0.3258 ( 18122 PWs)   bands (ev):

   -33.2699 -33.2470 -33.2251 -33.2069 -13.9143 -13.8714 -13.8019 -13.7675
   -13.7473 -13.7174 -13.6827 -13.6459 -13.6101 -13.5746 -13.5508 -13.5281
     2.1036   2.8360   4.2050   4.4649   4.7988   4.8167   5.2335   5.4950

          k =-0.1247-0.6868 0.1086 ( 18108 PWs)   bands (ev):

   -33.2545 -33.2275 -33.2195 -33.1962 -13.9208 -13.9023 -13.8706 -13.8512
   -13.7874 -13.7658 -13.7315 -13.6701 -13.6363 -13.5822 -13.5698 -13.5388
     2.9297   4.1926   4.2425   4.3710   4.5403   4.6119   4.7234   4.9279

          k =-0.1247 0.6868-0.1086 ( 18108 PWs)   bands (ev):

   -33.2545 -33.2275 -33.2195 -33.1962 -13.9208 -13.9027 -13.8697 -13.8516
   -13.7877 -13.7665 -13.7307 -13.6701 -13.6361 -13.5825 -13.5696 -13.5388
     2.9298   4.1915   4.2426   4.3704   4.5364   4.6187   4.7226   4.9276

          k = 0.1247-0.6868-0.1086 ( 18108 PWs)   bands (ev):

   -33.2545 -33.2275 -33.2195 -33.1962 -13.9208 -13.9023 -13.8706 -13.8512
   -13.7874 -13.7658 -13.7315 -13.6701 -13.6364 -13.5822 -13.5697 -13.5388
     2.9296   4.1926   4.2425   4.3710   4.5403   4.6119   4.7234   4.9279

          k =-0.1246-0.6868 0.3258 ( 18096 PWs)   bands (ev):

   -33.2530 -33.2301 -33.2184 -33.1961 -13.9551 -13.9423 -13.8521 -13.8370
   -13.8041 -13.7849 -13.6992 -13.6722 -13.5975 -13.5726 -13.5579 -13.5473
     3.2159   3.7141   4.3669   4.4354   4.5227   4.5637   4.6744   4.7582

          k =-0.1247 0.6868-0.3258 ( 18096 PWs)   bands (ev):

   -33.2530 -33.2301 -33.2184 -33.1961 -13.9552 -13.9423 -13.8518 -13.8369
   -13.8045 -13.7851 -13.6988 -13.6724 -13.5967 -13.5736 -13.5578 -13.5471
     3.2163   3.7133   4.3651   4.4336   4.5275   4.5646   4.6715   4.7596

          k = 0.1246-0.6868-0.3258 ( 18096 PWs)   bands (ev):

   -33.2530 -33.2301 -33.2184 -33.1961 -13.9551 -13.9423 -13.8521 -13.8370
   -13.8041 -13.7850 -13.6993 -13.6722 -13.5976 -13.5725 -13.5578 -13.5473
     3.2159   3.7142   4.3669   4.4354   4.5227   4.5638   4.6744   4.7582

          k =-0.3740-0.1374 0.1086 ( 18069 PWs)   bands (ev):

   -33.2791 -33.2569 -33.2353 -33.2282 -13.9663 -13.9511 -13.8643 -13.6941
   -13.6195 -13.6012 -13.5865 -13.5666 -13.5577 -13.5345 -13.5241 -13.5154
     1.5538   2.5866   3.6820   4.2709   4.5754   4.9522   5.6372   5.9855

          k =-0.3740 0.1374-0.1086 ( 18069 PWs)   bands (ev):

   -33.2791 -33.2569 -33.2353 -33.2282 -13.9667 -13.9507 -13.8642 -13.6944
   -13.6190 -13.6014 -13.5871 -13.5669 -13.5573 -13.5343 -13.5241 -13.5155
     1.5534   2.5870   3.6862   4.2620   4.5786   4.9528   5.6387   5.9854

          k = 0.3740-0.1374-0.1086 ( 18069 PWs)   bands (ev):

   -33.2791 -33.2569 -33.2353 -33.2282 -13.9663 -13.9511 -13.8643 -13.6941
   -13.6196 -13.6012 -13.5866 -13.5666 -13.5576 -13.5346 -13.5241 -13.5154
     1.5538   2.5866   3.6820   4.2709   4.5754   4.9522   5.6372   5.9855

          k =-0.3740-0.1374 0.3258 ( 18069 PWs)   bands (ev):

   -33.2724 -33.2580 -33.2400 -33.2291 -13.9245 -13.8875 -13.8605 -13.7612
   -13.6413 -13.6251 -13.5817 -13.5610 -13.5515 -13.5420 -13.5307 -13.5211
     1.9879   2.7065   3.0169   3.5878   5.2073   5.4357   5.5483   5.8496

          k =-0.3740 0.1374-0.3258 ( 18069 PWs)   bands (ev):

   -33.2724 -33.2579 -33.2401 -33.2291 -13.9249 -13.8871 -13.8601 -13.7618
   -13.6402 -13.6260 -13.5818 -13.5612 -13.5515 -13.5416 -13.5308 -13.5210
     1.9864   2.7118   3.0135   3.5876   5.1998   5.4476   5.5434   5.8503

          k = 0.3740-0.1374-0.3258 ( 18069 PWs)   bands (ev):

   -33.2724 -33.2580 -33.2400 -33.2291 -13.9245 -13.8875 -13.8605 -13.7612
   -13.6413 -13.6251 -13.5817 -13.5610 -13.5515 -13.5420 -13.5306 -13.5210
     1.9879   2.7065   3.0169   3.5878   5.2073   5.4357   5.5483   5.8496

          k =-0.3740-0.4121 0.1086 ( 18074 PWs)   bands (ev):

   -33.2622 -33.2433 -33.2262 -33.2169 -13.9197 -13.9038 -13.8592 -13.7598
   -13.7326 -13.6888 -13.6516 -13.6301 -13.6001 -13.5678 -13.5533 -13.5462
     2.2126   3.0824   4.0141   4.4389   4.6759   4.9471   5.2643   5.4680

          k =-0.3740 0.4121-0.1086 ( 18074 PWs)   bands (ev):

   -33.2622 -33.2433 -33.2262 -33.2169 -13.9199 -13.9036 -13.8591 -13.7599
   -13.7326 -13.6890 -13.6518 -13.6298 -13.5998 -13.5684 -13.5534 -13.5458
     2.2125   3.0824   4.0131   4.4466   4.6671   4.9487   5.2653   5.4678

          k = 0.3740-0.4121-0.1086 ( 18074 PWs)   bands (ev):

   -33.2622 -33.2433 -33.2262 -33.2169 -13.9197 -13.9038 -13.8592 -13.7599
   -13.7326 -13.6889 -13.6516 -13.6301 -13.6001 -13.5678 -13.5533 -13.5462
     2.2126   3.0824   4.0141   4.4389   4.6759   4.9470   5.2643   5.4680

          k =-0.3740-0.4121 0.3258 ( 18089 PWs)   bands (ev):

   -33.2580 -33.2441 -33.2292 -33.2174 -13.9109 -13.8857 -13.8650 -13.8084
   -13.6933 -13.6734 -13.6431 -13.6270 -13.6208 -13.5934 -13.5485 -13.5447
     2.5819   3.1881   3.4455   3.8981   5.0418   5.1566   5.2605   5.4285

          k =-0.3740 0.4121-0.3258 ( 18089 PWs)   bands (ev):

   -33.2580 -33.2441 -33.2292 -33.2174 -13.9111 -13.8857 -13.8645 -13.8087
   -13.6932 -13.6739 -13.6429 -13.6263 -13.6207 -13.5939 -13.5489 -13.5442
     2.5815   3.1908   3.4411   3.9012   5.0344   5.1666   5.2566   5.4288

          k = 0.3740-0.4121-0.3258 ( 18089 PWs)   bands (ev):

   -33.2580 -33.2441 -33.2292 -33.2174 -13.9109 -13.8857 -13.8649 -13.8085
   -13.6933 -13.6735 -13.6431 -13.6270 -13.6207 -13.5933 -13.5485 -13.5446
     2.5819   3.1881   3.4455   3.8981   5.0418   5.1566   5.2605   5.4285

          k =-0.3740-0.6868 0.1086 ( 18120 PWs)   bands (ev):

   -33.2441 -33.2295 -33.2186 -33.2056 -13.9329 -13.9191 -13.9040 -13.8856
   -13.7712 -13.7321 -13.7137 -13.6884 -13.5999 -13.5732 -13.5629 -13.5441
     3.2846   3.8254   4.3596   4.4664   4.5399   4.6166   4.7908   4.8897

          k =-0.3740 0.6868-0.1086 ( 18120 PWs)   bands (ev):

   -33.2441 -33.2295 -33.2186 -33.2056 -13.9329 -13.9194 -13.9035 -13.8857
   -13.7718 -13.7316 -13.7140 -13.6881 -13.5996 -13.5731 -13.5632 -13.5442
     3.2851   3.8244   4.3585   4.4621   4.5438   4.6197   4.7917   4.8878

          k = 0.3740-0.6868-0.1086 ( 18120 PWs)   bands (ev):

   -33.2441 -33.2295 -33.2186 -33.2056 -13.9329 -13.9191 -13.9040 -13.8856
   -13.7712 -13.7321 -13.7137 -13.6884 -13.5999 -13.5732 -13.5629 -13.5441
     3.2846   3.8254   4.3596   4.4664   4.5399   4.6166   4.7908   4.8897

          k =-0.3740-0.6868 0.3258 ( 18101 PWs)   bands (ev):

   -33.2433 -33.2296 -33.2191 -33.2057 -13.9655 -13.9565 -13.9164 -13.9053
   -13.7252 -13.7060 -13.6840 -13.6702 -13.6006 -13.5803 -13.5625 -13.5499
     3.5216   3.8844   4.0778   4.2747   4.5422   4.6088   4.7637   4.8116

          k =-0.3740 0.6868-0.3258 ( 18101 PWs)   bands (ev):

   -33.2433 -33.2296 -33.2191 -33.2057 -13.9656 -13.9566 -13.9162 -13.9053
   -13.7260 -13.7058 -13.6833 -13.6704 -13.6000 -13.5809 -13.5622 -13.5501
     3.5231   3.8828   4.0722   4.2810   4.5441   4.6063   4.7644   4.8113

          k = 0.3740-0.6868-0.3258 ( 18101 PWs)   bands (ev):

   -33.2433 -33.2296 -33.2191 -33.2057 -13.9655 -13.9566 -13.9163 -13.9053
   -13.7253 -13.7061 -13.6840 -13.6701 -13.6006 -13.5803 -13.5625 -13.5499
     3.5216   3.8844   4.0778   4.2747   4.5422   4.6088   4.7637   4.8116

!    total energy              =    -303.14185367 Ry
     Harris-Foulkes estimate   =    -303.14184871 Ry
     estimated scf accuracy    <       0.00000052 Ry

     The total energy is the sum of the following terms:

     one-electron contribution =    -102.42584001 Ry
     hartree contribution      =      62.47189461 Ry
     xc contribution           =     -47.33308019 Ry
     ewald contribution        =    -215.85482809 Ry

     convergence has been achieved in   6 iterations

     Forces acting on atoms (Ry/au):

     atom    1 type  2   force =     0.00143785   -0.00131293    0.00449236
     atom    2 type  2   force =    -0.00177270   -0.00002084    0.00362393
     atom    3 type  2   force =     0.00216752    0.00002006   -0.00507937
     atom    4 type  2   force =    -0.00195379    0.00130665   -0.00461443
     atom    5 type  1   force =    -0.00127158   -0.00000018    0.00097477
     atom    6 type  1   force =     0.00111788    0.00000191    0.00039137
     atom    7 type  1   force =    -0.00113968   -0.00000034   -0.00074681
     atom    8 type  1   force =     0.00093164    0.00000235    0.00337233
     atom    9 type  1   force =    -0.00086274    0.00001259    0.00300983
     atom   10 type  1   force =     0.00078099   -0.00001171    0.00300178
     atom   11 type  1   force =    -0.00036778    0.00001359   -0.00541291
     atom   12 type  1   force =     0.00093240   -0.00001115   -0.00301285

     Total force =     0.013077     Total SCF correction =     0.001190


     entering subroutine stress ...

          total   stress  (Ry/bohr**3)                   (kbar)     P=  111.24
   0.00072651  -0.00000001  -0.00000242        106.87     -0.00     -0.36
  -0.00000001   0.00075901   0.00000002         -0.00    111.65      0.00
  -0.00000242   0.00000002   0.00078311         -0.36      0.00    115.20


     number of scf cycles    =   2
     number of bfgs steps    =   1

     enthalpy old            =    -302.5803792771 Ry
     enthalpy new            =    -302.5816826087 Ry

     CASE: enthalpy_new < enthalpy_old

     new trust radius        =       0.0274458387 bohr
     new conv_thr            =       0.0000000541 Ry

     new unit-cell volume =    832.87663 a.u.^3 (   123.41958 Ang^3 )

CELL_PARAMETERS (alat= 10.55800000)
   1.004874147  -0.000000311  -0.000213690
  -0.000000188   0.608944607   0.000001466
  -0.000244971   0.000002781   1.156501666

ATOMIC_POSITIONS (crystal)
Ca       0.240432198   0.250000002   0.111113540    1   0   1
Ca       0.259478511  -0.249999998   0.610841420    1   0   1
Ca       0.740655963   0.249999998   0.388754484    1   0   1
Ca      -0.240594359  -0.250000002  -0.111126077    1   0   1
H        0.355348864   0.250000000   0.426682921    1   0   1
H        0.144602915  -0.250000000   0.926544360    1   0   1
H        0.855390433   0.250000000   0.073380293    1   0   1
H       -0.355454792  -0.249999999  -0.428623173    1   0   1
H        0.975186081   0.250000001   0.677244295    1   0   1
H       -0.475213223  -0.249999999   1.177237158    1   0   1
H        1.475332266   0.249999998  -0.174811546    1   0   1
H       -0.975164858  -0.250000001  -0.677237674    1   0   1



     Writing output data file CaH2_ambient.save
     NEW-OLD atomic charge density approx. for the potential
     NEW k-points:
        k(    1) = (   0.1244167   0.1368486   0.1081106), wk =   0.0416667
        k(    2) = (   0.1244627   0.1368480   0.3242798), wk =   0.0416667
        k(    3) = (   0.1244168   0.4105462   0.1081099), wk =   0.0416667
        k(    4) = (   0.1244628   0.4105456   0.3242791), wk =   0.0416667
        k(    5) = (   0.1244169   0.6842437   0.1081093), wk =   0.0416667
        k(    6) = (   0.1244629   0.6842432   0.3242785), wk =   0.0416667
        k(    7) = (   0.3732041   0.1368486   0.1081633), wk =   0.0416667
        k(    8) = (   0.3732501   0.1368481   0.3243325), wk =   0.0416667
        k(    9) = (   0.3732042   0.4105462   0.1081626), wk =   0.0416667
        k(   10) = (   0.3732502   0.4105457   0.3243318), wk =   0.0416667
        k(   11) = (   0.3732043   0.6842438   0.1081620), wk =   0.0416667
        k(   12) = (   0.3732502   0.6842433   0.3243312), wk =   0.0416667
        k(   13) = (  -0.1243708  -0.1368491   0.1080586), wk =   0.0416667
        k(   14) = (  -0.1244166   0.1368490  -0.1081113), wk =   0.0416667
        k(   15) = (   0.1243707  -0.1368485  -0.1080579), wk =   0.0416667
        k(   16) = (  -0.1243248  -0.1368496   0.3242277), wk =   0.0416667
        k(   17) = (  -0.1244626   0.1368495  -0.3242804), wk =   0.0416667
        k(   18) = (   0.1243247  -0.1368480  -0.3242271), wk =   0.0416667
        k(   19) = (  -0.1243708  -0.4105467   0.1080592), wk =   0.0416667
        k(   20) = (  -0.1244166   0.4105466  -0.1081119), wk =   0.0416667
        k(   21) = (   0.1243706  -0.4105461  -0.1080573), wk =   0.0416667
        k(   22) = (  -0.1243249  -0.4105472   0.3242284), wk =   0.0416667
        k(   23) = (  -0.1244625   0.4105471  -0.3242811), wk =   0.0416667
        k(   24) = (   0.1243246  -0.4105456  -0.3242264), wk =   0.0416667
        k(   25) = (  -0.1243709  -0.6842443   0.1080599), wk =   0.0416667
        k(   26) = (  -0.1244165   0.6842442  -0.1081126), wk =   0.0416667
        k(   27) = (   0.1243705  -0.6842437  -0.1080566), wk =   0.0416667
        k(   28) = (  -0.1243250  -0.6842448   0.3242291), wk =   0.0416667
        k(   29) = (  -0.1244624   0.6842447  -0.3242818), wk =   0.0416667
        k(   30) = (   0.1243245  -0.6842431  -0.3242258), wk =   0.0416667
        k(   31) = (  -0.3731581  -0.1368492   0.1080059), wk =   0.0416667
        k(   32) = (  -0.3732040   0.1368489  -0.1081640), wk =   0.0416667
        k(   33) = (   0.3731581  -0.1368484  -0.1080052), wk =   0.0416667
        k(   34) = (  -0.3731122  -0.1368497   0.3241750), wk =   0.0416667
        k(   35) = (  -0.3732500   0.1368495  -0.3243331), wk =   0.0416667
        k(   36) = (   0.3731121  -0.1368479  -0.3241744), wk =   0.0416667
        k(   37) = (  -0.3731582  -0.4105467   0.1080065), wk =   0.0416667
        k(   38) = (  -0.3732039   0.4105465  -0.1081646), wk =   0.0416667
        k(   39) = (   0.3731580  -0.4105460  -0.1080046), wk =   0.0416667
        k(   40) = (  -0.3731123  -0.4105473   0.3241757), wk =   0.0416667
        k(   41) = (  -0.3732499   0.4105470  -0.3243338), wk =   0.0416667
        k(   42) = (   0.3731120  -0.4105455  -0.3241737), wk =   0.0416667
        k(   43) = (  -0.3731583  -0.6842443   0.1080072), wk =   0.0416667
        k(   44) = (  -0.3732039   0.6842441  -0.1081653), wk =   0.0416667
        k(   45) = (   0.3731579  -0.6842436  -0.1080039), wk =   0.0416667
        k(   46) = (  -0.3731123  -0.6842449   0.3241764), wk =   0.0416667
        k(   47) = (  -0.3732498   0.6842446  -0.3243345), wk =   0.0416667
        k(   48) = (   0.3731119  -0.6842431  -0.3241731), wk =   0.0416667
     extrapolated charge   48.50904, renormalised to   48.00000

     total cpu time spent up to now is     3509.1 secs

     per-process dynamical memory:   102.5 Mb

     Self-consistent Calculation

     iteration #  1     ecut=   120.00 Ry     beta=0.30
     Davidson diagonalization with overlap
     ethr =  1.00E-06,  avg # of iterations =  5.0

     total cpu time spent up to now is     3835.5 secs

     total energy              =    -303.14189163 Ry
     Harris-Foulkes estimate   =    -302.46160589 Ry
     estimated scf accuracy    <       0.00446568 Ry

     iteration #  2     ecut=   120.00 Ry     beta=0.30
     Davidson diagonalization with overlap
     ethr =  9.30E-06,  avg # of iterations =  3.2

     total cpu time spent up to now is     4053.7 secs

     total energy              =    -303.14788636 Ry
     Harris-Foulkes estimate   =    -303.14737175 Ry
     estimated scf accuracy    <       0.00020129 Ry

     iteration #  3     ecut=   120.00 Ry     beta=0.30
     Davidson diagonalization with overlap
     ethr =  4.19E-07,  avg # of iterations =  1.8

     total cpu time spent up to now is     4190.7 secs

     total energy              =    -303.14854083 Ry
     Harris-Foulkes estimate   =    -303.14789673 Ry
     estimated scf accuracy    <       0.00013291 Ry

     iteration #  4     ecut=   120.00 Ry     beta=0.30
     Davidson diagonalization with overlap
     ethr =  2.77E-07,  avg # of iterations =  2.0

     total cpu time spent up to now is     4355.9 secs

     total energy              =    -303.14855711 Ry
     Harris-Foulkes estimate   =    -303.14855786 Ry
     estimated scf accuracy    <       0.00000600 Ry

     iteration #  5     ecut=   120.00 Ry     beta=0.30
     Davidson diagonalization with overlap
     ethr =  1.25E-08,  avg # of iterations =  3.7

     total cpu time spent up to now is     4533.2 secs

     total energy              =    -303.14855344 Ry
     Harris-Foulkes estimate   =    -303.14855953 Ry
     estimated scf accuracy    <       0.00000258 Ry

     iteration #  6     ecut=   120.00 Ry     beta=0.30
     Davidson diagonalization with overlap
     ethr =  5.38E-09,  avg # of iterations =  2.2

     total cpu time spent up to now is     4714.7 secs

     total energy              =    -303.14855731 Ry
     Harris-Foulkes estimate   =    -303.14855386 Ry
     estimated scf accuracy    <       0.00000048 Ry

     iteration #  7     ecut=   120.00 Ry     beta=0.30
     Davidson diagonalization with overlap
     ethr =  9.97E-10,  avg # of iterations =  3.0

     total cpu time spent up to now is     4892.0 secs

     End of self-consistent calculation

          k = 0.1244 0.1368 0.1081 ( 18078 PWs)   bands (ev):

   -33.4301 -33.3833 -33.3733 -33.3605 -14.1203 -14.0211 -13.9803 -13.8591
   -13.7893 -13.7561 -13.7478 -13.6912 -13.6740 -13.6600 -13.6475 -13.6438
     0.8688   3.2043   3.6683   4.2108   4.6656   4.8586   5.1232   5.8975

          k = 0.1245 0.1368 0.3243 ( 18096 PWs)   bands (ev):

   -33.4201 -33.3988 -33.3704 -33.3582 -14.0793 -14.0225 -13.9152 -13.8712
   -13.8252 -13.7808 -13.7330 -13.7092 -13.6924 -13.6621 -13.6577 -13.6483
     1.3443   2.1882   3.9275   4.3193   4.8098   4.8410   5.4050   5.8208

          k = 0.1244 0.4105 0.1081 ( 18089 PWs)   bands (ev):

   -33.4113 -33.3734 -33.3647 -33.3494 -14.0700 -13.9702 -13.9637 -13.8845
   -13.8547 -13.8368 -13.8136 -13.7785 -13.7685 -13.7445 -13.6672 -13.6562
     1.6069   3.5778   3.9467   4.3167   4.6706   4.7583   4.9605   5.4722

          k = 0.1245 0.4105 0.3243 ( 18122 PWs)   bands (ev):

   -33.4042 -33.3851 -33.3618 -33.3481 -14.0410 -14.0009 -13.9299 -13.8968
   -13.8792 -13.8488 -13.8166 -13.7814 -13.7463 -13.7123 -13.6894 -13.6671
     2.0179   2.7435   4.1108   4.3842   4.7064   4.7325   5.1391   5.4007

          k = 0.1244 0.6842 0.1081 ( 18108 PWs)   bands (ev):

   -33.3894 -33.3681 -33.3548 -33.3381 -14.0443 -14.0287 -13.9957 -13.9795
   -13.9193 -13.8999 -13.8638 -13.8059 -13.7700 -13.7173 -13.7070 -13.6781
     2.8384   4.0987   4.1441   4.2812   4.4458   4.5327   4.6378   4.8394

          k = 0.1245 0.6842 0.3243 ( 18096 PWs)   bands (ev):

   -33.3876 -33.3705 -33.3541 -33.3380 -14.0770 -14.0665 -13.9766 -13.9650
   -13.9352 -13.9207 -13.8321 -13.8084 -13.7324 -13.7085 -13.6962 -13.6867
     3.1242   3.6193   4.2759   4.3428   4.4417   4.4754   4.5853   4.6708

          k = 0.3732 0.1368 0.1082 ( 18069 PWs)   bands (ev):

   -33.4133 -33.3909 -33.3747 -33.3683 -14.0903 -14.0747 -13.9939 -13.8290
   -13.7544 -13.7371 -13.7235 -13.7044 -13.6936 -13.6730 -13.6650 -13.6562
     1.4756   2.5024   3.5914   4.1760   4.4761   4.8604   5.5526   5.8983

          k = 0.3733 0.1368 0.3243 ( 18069 PWs)   bands (ev):

   -33.4065 -33.3925 -33.3791 -33.3693 -14.0509 -14.0138 -13.9897 -13.8942
   -13.7742 -13.7610 -13.7178 -13.6974 -13.6890 -13.6795 -13.6716 -13.6619
     1.9039   2.6210   2.9259   3.4974   5.1078   5.3635   5.4492   5.7580

          k = 0.3732 0.4105 0.1082 ( 18074 PWs)   bands (ev):

   -33.3969 -33.3778 -33.3662 -33.3578 -14.0455 -14.0293 -13.9885 -13.8897
   -13.8645 -13.8206 -13.7885 -13.7669 -13.7367 -13.7037 -13.6928 -13.6842
     2.1282   2.9935   3.9160   4.3520   4.5747   4.8553   5.1811   5.3818

          k = 0.3733 0.4105 0.3243 ( 18089 PWs)   bands (ev):

   -33.3924 -33.3792 -33.3689 -33.3584 -14.0371 -14.0130 -13.9918 -13.9376
   -13.8265 -13.8078 -13.7794 -13.7629 -13.7561 -13.7300 -13.6867 -13.6828
     2.4940   3.0970   3.3513   3.8097   4.9466   5.0833   5.1629   5.3370

          k = 0.3732 0.6842 0.1082 ( 18120 PWs)   bands (ev):

   -33.3791 -33.3644 -33.3596 -33.3474 -14.0568 -14.0444 -14.0273 -14.0116
   -13.9035 -13.8653 -13.8496 -13.8240 -13.7342 -13.7109 -13.6981 -13.6843
     3.1938   3.7336   4.2641   4.3747   4.4487   4.5262   4.7061   4.7999

          k = 0.3733 0.6842 0.3243 ( 18101 PWs)   bands (ev):

   -33.3781 -33.3648 -33.3599 -33.3474 -14.0880 -14.0801 -14.0395 -14.0301
   -13.8603 -13.8420 -13.8194 -13.8070 -13.7342 -13.7163 -13.6994 -13.6894
     3.4325   3.7919   3.9842   4.1975   4.4474   4.5162   4.6726   4.7205

          k =-0.1244-0.1368 0.1081 ( 18078 PWs)   bands (ev):

   -33.4301 -33.3834 -33.3731 -33.3606 -14.1204 -14.0207 -13.9805 -13.8598
   -13.7885 -13.7560 -13.7480 -13.6910 -13.6741 -13.6599 -13.6475 -13.6440
     0.8689   3.2021   3.6721   4.2092   4.6699   4.8521   5.1258   5.8969

          k =-0.1244 0.1368-0.1081 ( 18078 PWs)   bands (ev):

   -33.4301 -33.3833 -33.3733 -33.3605 -14.1203 -14.0211 -13.9803 -13.8591
   -13.7893 -13.7561 -13.7478 -13.6912 -13.6741 -13.6600 -13.6475 -13.6438
     0.8688   3.2043   3.6683   4.2108   4.6656   4.8586   5.1232   5.8975

          k = 0.1244-0.1368-0.1081 ( 18078 PWs)   bands (ev):

   -33.4301 -33.3834 -33.3731 -33.3606 -14.1204 -14.0207 -13.9805 -13.8598
   -13.7885 -13.7560 -13.7480 -13.6910 -13.6741 -13.6599 -13.6475 -13.6440
     0.8688   3.2021   3.6721   4.2091   4.6699   4.8521   5.1258   5.8968

          k =-0.1243-0.1368 0.3242 ( 18096 PWs)   bands (ev):

   -33.4201 -33.3988 -33.3703 -33.3583 -14.0796 -14.0218 -13.9158 -13.8718
   -13.8246 -13.7803 -13.7334 -13.7080 -13.6936 -13.6620 -13.6576 -13.6485
     1.3445   2.1875   3.9321   4.3124   4.8193   4.8351   5.4052   5.8195

          k =-0.1245 0.1368-0.3243 ( 18096 PWs)   bands (ev):

   -33.4201 -33.3988 -33.3704 -33.3582 -14.0793 -14.0226 -13.9152 -13.8712
   -13.8252 -13.7808 -13.7330 -13.7092 -13.6924 -13.6621 -13.6577 -13.6483
     1.3443   2.1882   3.9275   4.3193   4.8098   4.8410   5.4050   5.8208

          k = 0.1243-0.1368-0.3242 ( 18096 PWs)   bands (ev):

   -33.4201 -33.3988 -33.3703 -33.3583 -14.0796 -14.0218 -13.9158 -13.8718
   -13.8246 -13.7803 -13.7334 -13.7080 -13.6936 -13.6620 -13.6576 -13.6485
     1.3445   2.1875   3.9321   4.3124   4.8193   4.8351   5.4052   5.8195

          k =-0.1244-0.4105 0.1081 ( 18089 PWs)   bands (ev):

   -33.4113 -33.3735 -33.3646 -33.3494 -14.0701 -13.9694 -13.9641 -13.8852
   -13.8540 -13.8377 -13.8131 -13.7785 -13.7679 -13.7449 -13.6671 -13.6563
     1.6069   3.5771   3.9500   4.3132   4.6727   4.7557   4.9616   5.4723

          k =-0.1244 0.4105-0.1081 ( 18089 PWs)   bands (ev):

   -33.4113 -33.3734 -33.3647 -33.3494 -14.0700 -13.9702 -13.9637 -13.8845
   -13.8548 -13.8367 -13.8135 -13.7785 -13.7686 -13.7446 -13.6672 -13.6562
     1.6069   3.5778   3.9467   4.3167   4.6706   4.7583   4.9605   5.4722

          k = 0.1244-0.4105-0.1081 ( 18089 PWs)   bands (ev):

   -33.4113 -33.3735 -33.3646 -33.3494 -14.0701 -13.9694 -13.9641 -13.8852
   -13.8540 -13.8378 -13.8132 -13.7785 -13.7679 -13.7449 -13.6671 -13.6563
     1.6069   3.5772   3.9500   4.3132   4.6727   4.7557   4.9616   5.4723

          k =-0.1243-0.4105 0.3242 ( 18122 PWs)   bands (ev):

   -33.4042 -33.3851 -33.3617 -33.3481 -14.0413 -14.0003 -13.9301 -13.8971
   -13.8793 -13.8485 -13.8166 -13.7813 -13.7464 -13.7118 -13.6898 -13.6672
     2.0179   2.7434   4.1161   4.3756   4.7126   4.7297   5.1389   5.4008

          k =-0.1245 0.4105-0.3243 ( 18122 PWs)   bands (ev):

   -33.4042 -33.3851 -33.3618 -33.3481 -14.0409 -14.0009 -13.9299 -13.8968
   -13.8792 -13.8487 -13.8166 -13.7814 -13.7463 -13.7124 -13.6893 -13.6671
     2.0179   2.7435   4.1108   4.3842   4.7064   4.7325   5.1391   5.4007

          k = 0.1243-0.4105-0.3242 ( 18122 PWs)   bands (ev):

   -33.4042 -33.3851 -33.3617 -33.3481 -14.0413 -14.0002 -13.9301 -13.8971
   -13.8794 -13.8485 -13.8166 -13.7813 -13.7464 -13.7117 -13.6898 -13.6672
     2.0179   2.7434   4.1161   4.3756   4.7126   4.7297   5.1389   5.4008

          k =-0.1244-0.6842 0.1081 ( 18108 PWs)   bands (ev):

   -33.3894 -33.3681 -33.3547 -33.3381 -14.0445 -14.0281 -13.9971 -13.9788
   -13.9191 -13.8989 -13.8646 -13.8060 -13.7700 -13.7173 -13.7070 -13.6781
     2.8382   4.1001   4.1439   4.2814   4.4498   4.5264   4.6384   4.8396

          k =-0.1244 0.6842-0.1081 ( 18108 PWs)   bands (ev):

   -33.3894 -33.3681 -33.3548 -33.3381 -14.0442 -14.0288 -13.9958 -13.9794
   -13.9193 -13.8999 -13.8638 -13.8059 -13.7700 -13.7174 -13.7070 -13.6781
     2.8384   4.0987   4.1440   4.2812   4.4458   4.5327   4.6378   4.8394

          k = 0.1244-0.6842-0.1081 ( 18108 PWs)   bands (ev):

   -33.3894 -33.3681 -33.3547 -33.3381 -14.0446 -14.0280 -13.9970 -13.9789
   -13.9192 -13.8989 -13.8646 -13.8060 -13.7700 -13.7173 -13.7070 -13.6781
     2.8382   4.1001   4.1439   4.2814   4.4498   4.5264   4.6384   4.8396

          k =-0.1243-0.6842 0.3242 ( 18096 PWs)   bands (ev):

   -33.3876 -33.3706 -33.3541 -33.3380 -14.0769 -14.0665 -13.9770 -13.9650
   -13.9350 -13.9202 -13.8325 -13.8083 -13.7328 -13.7079 -13.6963 -13.6868
     3.1236   3.6203   4.2771   4.3447   4.4379   4.4740   4.5885   4.6689

          k =-0.1245 0.6842-0.3243 ( 18096 PWs)   bands (ev):

   -33.3876 -33.3705 -33.3541 -33.3380 -14.0769 -14.0665 -13.9766 -13.9650
   -13.9353 -13.9207 -13.8321 -13.8084 -13.7324 -13.7085 -13.6962 -13.6867
     3.1242   3.6192   4.2758   4.3428   4.4417   4.4754   4.5853   4.6708

          k = 0.1243-0.6842-0.3242 ( 18096 PWs)   bands (ev):

   -33.3876 -33.3706 -33.3541 -33.3380 -14.0770 -14.0665 -13.9770 -13.9650
   -13.9350 -13.9203 -13.8325 -13.8083 -13.7328 -13.7079 -13.6963 -13.6868
     3.1236   3.6203   4.2771   4.3447   4.4379   4.4740   4.5885   4.6689

          k =-0.3732-0.1368 0.1080 ( 18069 PWs)   bands (ev):

   -33.4133 -33.3911 -33.3743 -33.3686 -14.0900 -14.0750 -13.9942 -13.8286
   -13.7546 -13.7372 -13.7230 -13.7045 -13.6940 -13.6729 -13.6648 -13.6564
     1.4757   2.5024   3.5887   4.1824   4.4734   4.8604   5.5510   5.8986

          k =-0.3732 0.1368-0.1082 ( 18069 PWs)   bands (ev):

   -33.4133 -33.3909 -33.3747 -33.3683 -14.0903 -14.0747 -13.9939 -13.8290
   -13.7544 -13.7371 -13.7235 -13.7044 -13.6936 -13.6730 -13.6650 -13.6562
     1.4756   2.5024   3.5914   4.1760   4.4761   4.8604   5.5526   5.8983

          k = 0.3732-0.1368-0.1080 ( 18069 PWs)   bands (ev):

   -33.4133 -33.3911 -33.3743 -33.3686 -14.0900 -14.0750 -13.9942 -13.8286
   -13.7546 -13.7372 -13.7230 -13.7045 -13.6940 -13.6728 -13.6648 -13.6564
     1.4757   2.5024   3.5887   4.1824   4.4733   4.8604   5.5510   5.8986

          k =-0.3731-0.1368 0.3242 ( 18069 PWs)   bands (ev):

   -33.4064 -33.3928 -33.3786 -33.3696 -14.0504 -14.0137 -13.9908 -13.8933
   -13.7754 -13.7599 -13.7177 -13.6974 -13.6897 -13.6794 -13.6709 -13.6624
     1.9045   2.6178   2.9293   3.4964   5.1145   5.3544   5.4514   5.7581

          k =-0.3732 0.1368-0.3243 ( 18069 PWs)   bands (ev):

   -33.4065 -33.3925 -33.3791 -33.3693 -14.0508 -14.0138 -13.9897 -13.8942
   -13.7742 -13.7610 -13.7178 -13.6974 -13.6890 -13.6796 -13.6716 -13.6619
     1.9039   2.6210   2.9259   3.4974   5.1078   5.3635   5.4492   5.7580

          k = 0.3731-0.1368-0.3242 ( 18069 PWs)   bands (ev):

   -33.4064 -33.3928 -33.3786 -33.3696 -14.0504 -14.0137 -13.9908 -13.8933
   -13.7754 -13.7599 -13.7177 -13.6974 -13.6897 -13.6794 -13.6709 -13.6624
     1.9045   2.6178   2.9293   3.4964   5.1145   5.3544   5.4514   5.7581

          k =-0.3732-0.4105 0.1080 ( 18074 PWs)   bands (ev):

   -33.3969 -33.3780 -33.3659 -33.3580 -14.0452 -14.0294 -13.9887 -13.8896
   -13.8645 -13.8205 -13.7876 -13.7679 -13.7366 -13.7035 -13.6929 -13.6842
     2.1280   2.9940   3.9177   4.3436   4.5829   4.8542   5.1799   5.3822

          k =-0.3732 0.4105-0.1082 ( 18074 PWs)   bands (ev):

   -33.3969 -33.3778 -33.3662 -33.3578 -14.0455 -14.0293 -13.9884 -13.8897
   -13.8644 -13.8206 -13.7886 -13.7669 -13.7367 -13.7037 -13.6928 -13.6842
     2.1282   2.9935   3.9159   4.3520   4.5747   4.8554   5.1811   5.3818

          k = 0.3732-0.4105-0.1080 ( 18074 PWs)   bands (ev):

   -33.3969 -33.3780 -33.3659 -33.3580 -14.0453 -14.0294 -13.9887 -13.8897
   -13.8645 -13.8205 -13.7876 -13.7679 -13.7366 -13.7035 -13.6929 -13.6842
     2.1280   2.9940   3.9177   4.3436   4.5829   4.8541   5.1799   5.3822

          k =-0.3731-0.4105 0.3242 ( 18089 PWs)   bands (ev):

   -33.3924 -33.3795 -33.3686 -33.3586 -14.0368 -14.0128 -13.9927 -13.9372
   -13.8268 -13.8071 -13.7789 -13.7639 -13.7562 -13.7295 -13.6869 -13.6828
     2.4937   3.0960   3.3556   3.8058   4.9533   5.0746   5.1652   5.3373

          k =-0.3732 0.4105-0.3243 ( 18089 PWs)   bands (ev):

   -33.3924 -33.3792 -33.3689 -33.3584 -14.0371 -14.0130 -13.9918 -13.9377
   -13.8265 -13.8078 -13.7794 -13.7628 -13.7561 -13.7299 -13.6867 -13.6828
     2.4940   3.0970   3.3513   3.8097   4.9466   5.0833   5.1628   5.3369

          k = 0.3731-0.4105-0.3242 ( 18089 PWs)   bands (ev):

   -33.3924 -33.3795 -33.3686 -33.3586 -14.0368 -14.0128 -13.9927 -13.9373
   -13.8268 -13.8072 -13.7789 -13.7639 -13.7562 -13.7295 -13.6869 -13.6828
     2.4937   3.0960   3.3556   3.8058   4.9533   5.0746   5.1652   5.3373

          k =-0.3732-0.6842 0.1080 ( 18120 PWs)   bands (ev):

   -33.3791 -33.3645 -33.3595 -33.3474 -14.0568 -14.0439 -14.0281 -14.0116
   -13.9029 -13.8659 -13.8489 -13.8245 -13.7343 -13.7109 -13.6979 -13.6843
     3.1932   3.7349   4.2649   4.3788   4.4457   4.5227   4.7050   4.8017

          k =-0.3732 0.6842-0.1082 ( 18120 PWs)   bands (ev):

   -33.3791 -33.3644 -33.3596 -33.3474 -14.0568 -14.0445 -14.0273 -14.0116
   -13.9036 -13.8653 -13.8496 -13.8240 -13.7342 -13.7109 -13.6981 -13.6843
     3.1938   3.7336   4.2640   4.3747   4.4487   4.5262   4.7061   4.7999

          k = 0.3732-0.6842-0.1080 ( 18120 PWs)   bands (ev):

   -33.3791 -33.3645 -33.3595 -33.3474 -14.0568 -14.0439 -14.0281 -14.0116
   -13.9029 -13.8659 -13.8489 -13.8245 -13.7343 -13.7110 -13.6979 -13.6843
     3.1932   3.7349   4.2650   4.3788   4.4457   4.5227   4.7050   4.8017

          k =-0.3731-0.6842 0.3242 ( 18101 PWs)   bands (ev):

   -33.3781 -33.3649 -33.3598 -33.3474 -14.0880 -14.0800 -14.0398 -14.0301
   -13.8595 -13.8421 -13.8199 -13.8069 -13.7347 -13.7159 -13.6994 -13.6893
     3.4305   3.7945   3.9897   4.1907   4.4456   4.5189   4.6726   4.7202

          k =-0.3732 0.6842-0.3243 ( 18101 PWs)   bands (ev):

   -33.3781 -33.3648 -33.3599 -33.3474 -14.0880 -14.0801 -14.0395 -14.0302
   -13.8603 -13.8420 -13.8194 -13.8070 -13.7342 -13.7163 -13.6994 -13.6894
     3.4325   3.7919   3.9842   4.1975   4.4474   4.5162   4.6726   4.7205

          k = 0.3731-0.6842-0.3242 ( 18101 PWs)   bands (ev):

   -33.3781 -33.3649 -33.3598 -33.3474 -14.0880 -14.0800 -14.0398 -14.0301
   -13.8595 -13.8422 -13.8199 -13.8069 -13.7347 -13.7159 -13.6994 -13.6893
     3.4305   3.7945   3.9897   4.1908   4.4456   4.5189   4.6726   4.7202

!    total energy              =    -303.14855822 Ry
     Harris-Foulkes estimate   =    -303.14855738 Ry
     estimated scf accuracy    <       0.00000001 Ry

     The total energy is the sum of the following terms:

     one-electron contribution =    -103.55514886 Ry
     hartree contribution      =      62.80177969 Ry
     xc contribution           =     -47.29733207 Ry
     ewald contribution        =    -215.09785699 Ry

     convergence has been achieved in   7 iterations

     Forces acting on atoms (Ry/au):

     atom    1 type  2   force =     0.00077996   -0.00142288    0.00210115
     atom    2 type  2   force =    -0.00111149    0.00000588    0.00228510
     atom    3 type  2   force =     0.00111921   -0.00000359   -0.00272612
     atom    4 type  2   force =    -0.00095810    0.00139322   -0.00232841
     atom    5 type  1   force =    -0.00104673    0.00000762    0.00116484
     atom    6 type  1   force =     0.00103485   -0.00000050    0.00083466
     atom    7 type  1   force =    -0.00101762    0.00000731   -0.00112452
     atom    8 type  1   force =     0.00095591   -0.00000082    0.00160153
     atom    9 type  1   force =    -0.00087801    0.00000245    0.00165085
     atom   10 type  1   force =     0.00082979    0.00000404    0.00177639
     atom   11 type  1   force =    -0.00061291    0.00000284   -0.00348439
     atom   12 type  1   force =     0.00090514    0.00000444   -0.00175107

     Total force =     0.007762     Total SCF correction =     0.000489


     entering subroutine stress ...

          total   stress  (Ry/bohr**3)                   (kbar)     P=  101.79
   0.00067394  -0.00000002  -0.00000061         99.14     -0.00     -0.09
  -0.00000002   0.00068635  -0.00000002         -0.00    100.97     -0.00
  -0.00000061  -0.00000002   0.00071548         -0.09     -0.00    105.25


     number of scf cycles    =   3
     number of bfgs steps    =   2

     enthalpy old            =    -302.5816826087 Ry
     enthalpy new            =    -302.5823800931 Ry

     CASE: enthalpy_new < enthalpy_old

     new trust radius        =       0.0150779238 bohr
     new conv_thr            =       0.0000000348 Ry

     new unit-cell volume =    836.48676 a.u.^3 (   123.95455 Ang^3 )

CELL_PARAMETERS (alat= 10.55800000)
   1.005304737  -0.000001014  -0.000266785
  -0.000000611   0.609729678   0.000001109
  -0.000306100   0.000002108   1.159522190

ATOMIC_POSITIONS (crystal)
Ca       0.240606091   0.250000003   0.111550829    1   0   1
Ca       0.259243901  -0.249999997   0.611263550    1   0   1
Ca       0.740910747   0.249999996   0.388219157    1   0   1
Ca      -0.240817008  -0.250000004  -0.111594507    1   0   1
H        0.355147521   0.250000001   0.426858447    1   0   1
H        0.144795423  -0.249999999   0.926657467    1   0   1
H        0.855199343   0.249999999   0.073219032    1   0   1
H       -0.355281895  -0.249999997  -0.428294536    1   0   1
H        0.975027864   0.250000003   0.677561841    1   0   1
H       -0.475065747  -0.249999998   1.177569310    1   0   1
H        1.475233436   0.249999995  -0.175443555    1   0   1
H       -0.974999675  -0.250000003  -0.677567035    1   0   1



     Writing output data file CaH2_ambient.save
     NEW-OLD atomic charge density approx. for the potential
     NEW k-points:
        k(    1) = (   0.1243692   0.1366725   0.1078356), wk =   0.0416667
        k(    2) = (   0.1244264   0.1366721   0.3234417), wk =   0.0416667
        k(    3) = (   0.1243694   0.4100177   0.1078351), wk =   0.0416667
        k(    4) = (   0.1244267   0.4100173   0.3234412), wk =   0.0416667
        k(    5) = (   0.1243697   0.6833629   0.1078346), wk =   0.0416667
        k(    6) = (   0.1244269   0.6833625   0.3234407), wk =   0.0416667
        k(    7) = (   0.3730500   0.1366728   0.1079013), wk =   0.0416667
        k(    8) = (   0.3731072   0.1366724   0.3235073), wk =   0.0416667
        k(    9) = (   0.3730503   0.4100179   0.1079008), wk =   0.0416667
        k(   10) = (   0.3731075   0.4100176   0.3235068), wk =   0.0416667
        k(   11) = (   0.3730505   0.6833631   0.1079003), wk =   0.0416667
        k(   12) = (   0.3731078   0.6833627   0.3235063), wk =   0.0416667
        k(   13) = (  -0.1243119  -0.1366729   0.1077705), wk =   0.0416667
        k(   14) = (  -0.1243689   0.1366727  -0.1078361), wk =   0.0416667
        k(   15) = (   0.1243117  -0.1366723  -0.1077700), wk =   0.0416667
        k(   16) = (  -0.1242547  -0.1366733   0.3233765), wk =   0.0416667
        k(   17) = (  -0.1244261   0.1366731  -0.3234422), wk =   0.0416667
        k(   18) = (   0.1242545  -0.1366719  -0.3233760), wk =   0.0416667
        k(   19) = (  -0.1243122  -0.4100181   0.1077710), wk =   0.0416667
        k(   20) = (  -0.1243686   0.4100178  -0.1078366), wk =   0.0416667
        k(   21) = (   0.1243114  -0.4100174  -0.1077695), wk =   0.0416667
        k(   22) = (  -0.1242550  -0.4100185   0.3233770), wk =   0.0416667
        k(   23) = (  -0.1244258   0.4100182  -0.3234427), wk =   0.0416667
        k(   24) = (   0.1242542  -0.4100171  -0.3233755), wk =   0.0416667
        k(   25) = (  -0.1243125  -0.6833633   0.1077715), wk =   0.0416667
        k(   26) = (  -0.1243683   0.6833630  -0.1078371), wk =   0.0416667
        k(   27) = (   0.1243111  -0.6833626  -0.1077690), wk =   0.0416667
        k(   28) = (  -0.1242553  -0.6833637   0.3233775), wk =   0.0416667
        k(   29) = (  -0.1244256   0.6833634  -0.3234432), wk =   0.0416667
        k(   30) = (   0.1242539  -0.6833622  -0.3233750), wk =   0.0416667
        k(   31) = (  -0.3729928  -0.1366732   0.1077048), wk =   0.0416667
        k(   32) = (  -0.3730497   0.1366724  -0.1079018), wk =   0.0416667
        k(   33) = (   0.3729925  -0.1366720  -0.1077043), wk =   0.0416667
        k(   34) = (  -0.3729356  -0.1366736   0.3233109), wk =   0.0416667
        k(   35) = (  -0.3731069   0.1366728  -0.3235078), wk =   0.0416667
        k(   36) = (   0.3729353  -0.1366716  -0.3233104), wk =   0.0416667
        k(   37) = (  -0.3729931  -0.4100183   0.1077053), wk =   0.0416667
        k(   38) = (  -0.3730494   0.4100176  -0.1079023), wk =   0.0416667
        k(   39) = (   0.3729922  -0.4100172  -0.1077038), wk =   0.0416667
        k(   40) = (  -0.3729358  -0.4100187   0.3233114), wk =   0.0416667
        k(   41) = (  -0.3731067   0.4100180  -0.3235083), wk =   0.0416667
        k(   42) = (   0.3729350  -0.4100168  -0.3233099), wk =   0.0416667
        k(   43) = (  -0.3729933  -0.6833635   0.1077058), wk =   0.0416667
        k(   44) = (  -0.3730492   0.6833628  -0.1079027), wk =   0.0416667
        k(   45) = (   0.3729919  -0.6833624  -0.1077033), wk =   0.0416667
        k(   46) = (  -0.3729361  -0.6833639   0.3233119), wk =   0.0416667
        k(   47) = (  -0.3731064   0.6833632  -0.3235088), wk =   0.0416667
        k(   48) = (   0.3729347  -0.6833620  -0.3233094), wk =   0.0416667
     extrapolated charge   48.20707, renormalised to   48.00000

     total cpu time spent up to now is     5188.4 secs

     per-process dynamical memory:   102.5 Mb

     Self-consistent Calculation

     iteration #  1     ecut=   120.00 Ry     beta=0.30
     Davidson diagonalization with overlap
     ethr =  1.00E-06,  avg # of iterations =  4.1

     total cpu time spent up to now is     5507.2 secs

     total energy              =    -303.14999261 Ry
[...]
     Harris-Foulkes estimate   =    -303.14981414 Ry
     estimated scf accuracy    <       0.00000047 Ry

     iteration # 10     ecut=   120.00 Ry     beta=0.30
     Davidson diagonalization with overlap
     ethr =  9.74E-10,  avg # of iterations =  2.2

     total cpu time spent up to now is    23995.1 secs

     total energy              =    -303.14981417 Ry
     Harris-Foulkes estimate   =    -303.14981415 Ry
     estimated scf accuracy    <       0.00000043 Ry

     iteration # 11     ecut=   120.00 Ry     beta=0.30
     Davidson diagonalization with overlap
     ethr =  9.00E-10,  avg # of iterations =  1.0

     total cpu time spent up to now is    24134.1 secs

     total energy              =    -303.14981397 Ry
     Harris-Foulkes estimate   =    -303.14981417 Ry
     estimated scf accuracy    <       0.00000047 Ry

     iteration # 12     ecut=   120.00 Ry     beta=0.30
     Davidson diagonalization with overlap
     ethr =  9.00E-10,  avg # of iterations =  2.0

     total cpu time spent up to now is    24302.9 secs

     total energy              =    -303.14981403 Ry
     Harris-Foulkes estimate   =    -303.14981405 Ry
     estimated scf accuracy    <       0.00000012 Ry

     iteration # 13     ecut=   120.00 Ry     beta=0.30
     Davidson diagonalization with overlap
     ethr =  2.58E-10,  avg # of iterations =  2.1

     total cpu time spent up to now is    24463.5 secs

     total energy              =    -303.14981403 Ry
     Harris-Foulkes estimate   =    -303.14981404 Ry
     estimated scf accuracy    <       0.00000005 Ry

     iteration # 14     ecut=   120.00 Ry     beta=0.30
     Davidson diagonalization with overlap
     ethr =  9.57E-11,  avg # of iterations =  1.0

     total cpu time spent up to now is    24600.4 secs

     total energy              =    -303.14981403 Ry
     Harris-Foulkes estimate   =    -303.14981403 Ry
     estimated scf accuracy    <       0.00000002 Ry

     iteration # 15     ecut=   120.00 Ry     beta=0.30
     Davidson diagonalization with overlap
     ethr =  4.68E-11,  avg # of iterations =  2.4

     total cpu time spent up to now is    24791.4 secs

     End of self-consistent calculation

          k = 0.1250 0.1370 0.1074 ( 18485 PWs)   bands (ev):

   -33.4386 -33.3931 -33.3794 -33.3754 -14.1328 -14.0256 -13.9888 -13.8689
   -13.7984 -13.7666 -13.7515 -13.6967 -13.6776 -13.6676 -13.6559 -13.6520
     0.8683   3.1833   3.6797   4.1771   4.7258   4.8455   5.1356   5.9305

          k = 0.1250 0.1370 0.3223 ( 18496 PWs)   bands (ev):

   -33.4277 -33.4103 -33.3750 -33.3737 -14.0927 -14.0361 -13.9220 -13.8751
   -13.8352 -13.7861 -13.7375 -13.7152 -13.6993 -13.6706 -13.6622 -13.6566
     1.3388   2.1740   3.9457   4.3374   4.8112   4.8544   5.4002   5.8197

          k = 0.1250 0.4111 0.1074 ( 18504 PWs)   bands (ev):

   -33.4196 -33.3851 -33.3683 -33.3646 -14.0828 -13.9808 -13.9678 -13.8908
   -13.8608 -13.8485 -13.8183 -13.7862 -13.7781 -13.7504 -13.6746 -13.6646
     1.6094   3.5607   3.9555   4.2925   4.7146   4.7395   4.9738   5.4925

          k = 0.1250 0.4111 0.3223 ( 18494 PWs)   bands (ev):

   -33.4111 -33.3976 -33.3650 -33.3638 -14.0539 -14.0135 -13.9341 -13.9017
   -13.8878 -13.8530 -13.8240 -13.7903 -13.7539 -13.7188 -13.6983 -13.6754
     2.0156   2.7330   4.1272   4.3937   4.7065   4.7414   5.1376   5.3999

          k = 0.1250 0.6851 0.1074 ( 18488 PWs)   bands (ev):

   -33.3955 -33.3826 -33.3558 -33.3542 -14.0507 -14.0380 -14.0046 -13.9883
   -13.9307 -13.9130 -13.8731 -13.8158 -13.7731 -13.7211 -13.7125 -13.6868
     2.8454   4.0991   4.1454   4.2809   4.4444   4.5232   4.6502   4.8382

          k = 0.1250 0.6851 0.3223 ( 18491 PWs)   bands (ev):

   -33.3920 -33.3867 -33.3550 -33.3544 -14.0817 -14.0747 -13.9809 -13.9713
   -13.9466 -13.9397 -13.8406 -13.8195 -13.7375 -13.7114 -13.7040 -13.6959
     3.1271   3.6175   4.2784   4.3538   4.4402   4.4869   4.5845   4.6577

          k = 0.3750 0.1370 0.1074 ( 18466 PWs)   bands (ev):

   -33.4207 -33.3958 -33.3880 -33.3820 -14.0989 -14.0831 -14.0087 -13.8404
   -13.7601 -13.7416 -13.7301 -13.7106 -13.6957 -13.6799 -13.6737 -13.6642
     1.4789   2.5114   3.5761   4.1839   4.4546   4.8641   5.5774   5.9368

          k = 0.3750 0.1370 0.3223 ( 18483 PWs)   bands (ev):

   -33.4127 -33.4008 -33.3893 -33.3840 -14.0622 -14.0247 -14.0038 -13.9058
   -13.7790 -13.7659 -13.7212 -13.7002 -13.6956 -13.6840 -13.6802 -13.6702
     1.9035   2.6157   2.9316   3.5025   5.1037   5.3813   5.4469   5.7744

          k = 0.3750 0.4111 0.1074 ( 18480 PWs)   bands (ev):

   -33.4039 -33.3822 -33.3793 -33.3721 -14.0547 -14.0369 -14.0018 -13.8969
   -13.8707 -13.8238 -13.7985 -13.7788 -13.7441 -13.7053 -13.7039 -13.6909
     2.1333   3.0022   3.9028   4.3429   4.5690   4.8581   5.2024   5.4106

          k = 0.3750 0.4111 0.3223 ( 18469 PWs)   bands (ev):

   -33.3977 -33.3884 -33.3777 -33.3736 -14.0467 -14.0236 -14.0005 -13.9449
   -13.8343 -13.8150 -13.7889 -13.7737 -13.7613 -13.7355 -13.6933 -13.6895
     2.4955   3.0953   3.3568   3.8115   4.9512   5.1129   5.1464   5.3427

          k = 0.3750 0.6851 0.1074 ( 18505 PWs)   bands (ev):

   -33.3836 -33.3747 -33.3667 -33.3632 -14.0638 -14.0524 -14.0331 -14.0196
   -13.9138 -13.8776 -13.8634 -13.8373 -13.7370 -13.7173 -13.6974 -13.6958
     3.2007   3.7399   4.2494   4.3834   4.4410   4.5313   4.7199   4.8066

          k = 0.3750 0.6851 0.3223 ( 18505 PWs)   bands (ev):

   -33.3812 -33.3774 -33.3656 -33.3640 -14.0942 -14.0875 -14.0436 -14.0361
   -13.8736 -13.8577 -13.8335 -13.8207 -13.7365 -13.7200 -13.7034 -13.6977
     3.4364   3.7981   3.9841   4.1935   4.4582   4.5338   4.6691   4.7146

          k =-0.1250-0.1370 0.1074 ( 18483 PWs)   bands (ev):

   -33.4386 -33.3931 -33.3792 -33.3756 -14.1328 -14.0258 -13.9887 -13.8689
   -13.7981 -13.7667 -13.7515 -13.6969 -13.6777 -13.6676 -13.6559 -13.6518
     0.8683   3.1834   3.6796   4.1770   4.7256   4.8461   5.1353   5.9304

          k =-0.1250 0.1370-0.1074 ( 18483 PWs)   bands (ev):

   -33.4386 -33.3931 -33.3794 -33.3754 -14.1328 -14.0256 -13.9888 -13.8689
   -13.7983 -13.7665 -13.7516 -13.6968 -13.6776 -13.6677 -13.6557 -13.6520
     0.8683   3.1834   3.6797   4.1770   4.7258   4.8455   5.1356   5.9305

          k = 0.1250-0.1370-0.1074 ( 18483 PWs)   bands (ev):

   -33.4386 -33.3931 -33.3792 -33.3756 -14.1328 -14.0258 -13.9887 -13.8689
   -13.7982 -13.7666 -13.7516 -13.6969 -13.6777 -13.6675 -13.6560 -13.6518
     0.8683   3.1834   3.6796   4.1770   4.7256   4.8461   5.1354   5.9304

          k =-0.1250-0.1370 0.3223 ( 18496 PWs)   bands (ev):

   -33.4277 -33.4104 -33.3745 -33.3742 -14.0926 -14.0363 -13.9217 -13.8753
   -13.8352 -13.7860 -13.7376 -13.7150 -13.6998 -13.6703 -13.6621 -13.6567
     1.3388   2.1740   3.9455   4.3376   4.8105   4.8552   5.4001   5.8197

          k =-0.1250 0.1370-0.3223 ( 18495 PWs)   bands (ev):

   -33.4277 -33.4103 -33.3750 -33.3737 -14.0927 -14.0361 -13.9220 -13.8751
   -13.8352 -13.7861 -13.7375 -13.7152 -13.6993 -13.6706 -13.6622 -13.6565
     1.3388   2.1740   3.9457   4.3374   4.8112   4.8544   5.4002   5.8197

          k = 0.1250-0.1370-0.3223 ( 18496 PWs)   bands (ev):

   -33.4277 -33.4104 -33.3745 -33.3742 -14.0926 -14.0363 -13.9217 -13.8753
   -13.8352 -13.7859 -13.7375 -13.7151 -13.6998 -13.6704 -13.6620 -13.6567
     1.3388   2.1740   3.9455   4.3376   4.8105   4.8552   5.4001   5.8196

          k =-0.1250-0.4111 0.1074 ( 18504 PWs)   bands (ev):

   -33.4196 -33.3852 -33.3681 -33.3647 -14.0827 -13.9809 -13.9678 -13.8909
   -13.8607 -13.8487 -13.8182 -13.7862 -13.7778 -13.7508 -13.6747 -13.6644
     1.6094   3.5608   3.9554   4.2923   4.7148   4.7398   4.9736   5.4923

          k =-0.1250 0.4111-0.1074 ( 18504 PWs)   bands (ev):

   -33.4196 -33.3851 -33.3683 -33.3646 -14.0827 -13.9808 -13.9678 -13.8908
   -13.8609 -13.8484 -13.8183 -13.7862 -13.7780 -13.7506 -13.6744 -13.6646
     1.6094   3.5608   3.9555   4.2924   4.7146   4.7395   4.9738   5.4925

          k = 0.1250-0.4111-0.1074 ( 18503 PWs)   bands (ev):

   -33.4196 -33.3852 -33.3681 -33.3647 -14.0827 -13.9809 -13.9678 -13.8908
   -13.8604 -13.8488 -13.8183 -13.7861 -13.7778 -13.7508 -13.6747 -13.6644
     1.6094   3.5607   3.9554   4.2924   4.7148   4.7398   4.9737   5.4923

          k =-0.1250-0.4111 0.3223 ( 18494 PWs)   bands (ev):

   -33.4111 -33.3976 -33.3647 -33.3641 -14.0537 -14.0136 -13.9342 -13.9018
   -13.8875 -13.8532 -13.8241 -13.7902 -13.7538 -13.7188 -13.6986 -13.6751
     2.0156   2.7330   4.1270   4.3938   4.7058   4.7424   5.1375   5.3998

          k =-0.1250 0.4111-0.3223 ( 18494 PWs)   bands (ev):

   -33.4111 -33.3976 -33.3650 -33.3638 -14.0538 -14.0135 -13.9341 -13.9018
   -13.8877 -13.8530 -13.8241 -13.7902 -13.7539 -13.7189 -13.6981 -13.6754
     2.0156   2.7330   4.1272   4.3937   4.7065   4.7414   5.1376   5.3999

          k = 0.1250-0.4111-0.3223 ( 18493 PWs)   bands (ev):

   -33.4111 -33.3976 -33.3647 -33.3641 -14.0538 -14.0135 -13.9343 -13.9016
   -13.8877 -13.8532 -13.8240 -13.7903 -13.7537 -13.7188 -13.6987 -13.6752
     2.0157   2.7330   4.1271   4.3938   4.7058   4.7424   5.1375   5.3998

          k =-0.1250-0.6851 0.1074 ( 18488 PWs)   bands (ev):

   -33.3955 -33.3826 -33.3558 -33.3542 -14.0506 -14.0381 -14.0049 -13.9880
   -13.9309 -13.9131 -13.8729 -13.8158 -13.7731 -13.7212 -13.7124 -13.6867
     2.8454   4.0990   4.1451   4.2817   4.4435   4.5238   4.6503   4.8380

          k =-0.1250 0.6851-0.1074 ( 18488 PWs)   bands (ev):

   -33.3955 -33.3826 -33.3558 -33.3542 -14.0505 -14.0382 -14.0048 -13.9882
   -13.9307 -13.9129 -13.8731 -13.8157 -13.7731 -13.7212 -13.7124 -13.6867
     2.8453   4.0992   4.1454   4.2809   4.4444   4.5232   4.6502   4.8382

          k = 0.1250-0.6851-0.1074 ( 18488 PWs)   bands (ev):

   -33.3955 -33.3826 -33.3558 -33.3542 -14.0508 -14.0379 -14.0048 -13.9882
   -13.9308 -13.9131 -13.8729 -13.8158 -13.7730 -13.7212 -13.7124 -13.6867
     2.8454   4.0990   4.1451   4.2817   4.4435   4.5238   4.6503   4.8380

          k =-0.1250-0.6851 0.3223 ( 18492 PWs)   bands (ev):

   -33.3920 -33.3868 -33.3550 -33.3544 -14.0815 -14.0748 -13.9809 -13.9711
   -13.9470 -13.9395 -13.8406 -13.8195 -13.7375 -13.7113 -13.7043 -13.6957
     3.1271   3.6174   4.2776   4.3549   4.4409   4.4858   4.5850   4.6574

          k =-0.1250 0.6851-0.3223 ( 18492 PWs)   bands (ev):

   -33.3920 -33.3868 -33.3550 -33.3544 -14.0815 -14.0748 -13.9809 -13.9713
   -13.9467 -13.9395 -13.8407 -13.8195 -13.7376 -13.7114 -13.7039 -13.6959
     3.1271   3.6175   4.2784   4.3539   4.4402   4.4869   4.5845   4.6577

          k = 0.1250-0.6851-0.3223 ( 18493 PWs)   bands (ev):

   -33.3920 -33.3868 -33.3550 -33.3544 -14.0817 -14.0747 -13.9808 -13.9712
   -13.9470 -13.9396 -13.8406 -13.8195 -13.7375 -13.7113 -13.7043 -13.6957
     3.1272   3.6174   4.2777   4.3548   4.4409   4.4859   4.5850   4.6574

          k =-0.3750-0.1370 0.1074 ( 18464 PWs)   bands (ev):

   -33.4207 -33.3961 -33.3875 -33.3822 -14.0990 -14.0829 -14.0087 -13.8404
   -13.7601 -13.7416 -13.7300 -13.7108 -13.6958 -13.6799 -13.6735 -13.6643
     1.4789   2.5113   3.5762   4.1839   4.4544   4.8644   5.5775   5.9366

          k =-0.3750 0.1370-0.1074 ( 18464 PWs)   bands (ev):

   -33.4207 -33.3958 -33.3880 -33.3820 -14.0988 -14.0831 -14.0087 -13.8404
   -13.7601 -13.7417 -13.7299 -13.7108 -13.6958 -13.6798 -13.6737 -13.6642
     1.4789   2.5114   3.5762   4.1840   4.4546   4.8641   5.5774   5.9368

          k = 0.3750-0.1370-0.1074 ( 18465 PWs)   bands (ev):

   -33.4207 -33.3961 -33.3875 -33.3822 -14.0990 -14.0829 -14.0087 -13.8404
   -13.7601 -13.7417 -13.7299 -13.7109 -13.6960 -13.6796 -13.6736 -13.6643
     1.4789   2.5114   3.5761   4.1839   4.4544   4.8644   5.5775   5.9366

          k =-0.3750-0.1370 0.3223 ( 18483 PWs)   bands (ev):

   -33.4126 -33.4011 -33.3887 -33.3843 -14.0624 -14.0245 -14.0036 -13.9059
   -13.7791 -13.7658 -13.7211 -13.7004 -13.6959 -13.6840 -13.6796 -13.6705
     1.9036   2.6157   2.9314   3.5027   5.1032   5.3818   5.4474   5.7738

          k =-0.3750 0.1370-0.3223 ( 18483 PWs)   bands (ev):

   -33.4127 -33.4008 -33.3893 -33.3840 -14.0622 -14.0247 -14.0038 -13.9058
   -13.7790 -13.7659 -13.7211 -13.7002 -13.6957 -13.6839 -13.6802 -13.6702
     1.9035   2.6157   2.9316   3.5025   5.1037   5.3813   5.4469   5.7744

          k = 0.3750-0.1370-0.3223 ( 18483 PWs)   bands (ev):

   -33.4126 -33.4011 -33.3887 -33.3843 -14.0624 -14.0245 -14.0037 -13.9059
   -13.7791 -13.7658 -13.7211 -13.7004 -13.6959 -13.6839 -13.6797 -13.6705
     1.9036   2.6157   2.9314   3.5026   5.1032   5.3819   5.4474   5.7738

          k =-0.3750-0.4111 0.1074 ( 18480 PWs)   bands (ev):

   -33.4039 -33.3827 -33.3787 -33.3723 -14.0548 -14.0368 -14.0018 -13.8969
   -13.8707 -13.8239 -13.7982 -13.7790 -13.7439 -13.7052 -13.7040 -13.6909
     2.1333   3.0022   3.9028   4.3431   4.5689   4.8582   5.2025   5.4104

          k =-0.3750 0.4111-0.1074 ( 18480 PWs)   bands (ev):

   -33.4039 -33.3822 -33.3793 -33.3721 -14.0547 -14.0369 -14.0019 -13.8969
   -13.8707 -13.8238 -13.7986 -13.7787 -13.7441 -13.7052 -13.7039 -13.6909
     2.1332   3.0023   3.9028   4.3429   4.5690   4.8581   5.2023   5.4107

          k = 0.3750-0.4111-0.1074 ( 18480 PWs)   bands (ev):

   -33.4039 -33.3827 -33.3787 -33.3723 -14.0548 -14.0369 -14.0018 -13.8969
   -13.8707 -13.8239 -13.7982 -13.7791 -13.7440 -13.7053 -13.7040 -13.6908
     2.1333   3.0022   3.9027   4.3430   4.5690   4.8582   5.2025   5.4104

          k =-0.3750-0.4111 0.3223 ( 18470 PWs)   bands (ev):

   -33.3976 -33.3887 -33.3772 -33.3739 -14.0466 -14.0236 -14.0003 -13.9450
   -13.8344 -13.8150 -13.7886 -13.7740 -13.7612 -13.7354 -13.6934 -13.6894
     2.4955   3.0952   3.3566   3.8117   4.9506   5.1155   5.1447   5.3424

          k =-0.3750 0.4111-0.3223 ( 18469 PWs)   bands (ev):

   -33.3977 -33.3884 -33.3777 -33.3736 -14.0466 -14.0236 -14.0004 -13.9450
   -13.8344 -13.8149 -13.7889 -13.7736 -13.7613 -13.7354 -13.6933 -13.6895
     2.4954   3.0953   3.3568   3.8115   4.9511   5.1129   5.1465   5.3427

          k = 0.3750-0.4111-0.3223 ( 18470 PWs)   bands (ev):

   -33.3976 -33.3887 -33.3772 -33.3739 -14.0467 -14.0235 -14.0004 -13.9450
   -13.8344 -13.8150 -13.7885 -13.7740 -13.7613 -13.7354 -13.6934 -13.6894
     2.4955   3.0951   3.3566   3.8117   4.9506   5.1155   5.1447   5.3423

          k =-0.3750-0.6851 0.1074 ( 18504 PWs)   bands (ev):

   -33.3836 -33.3748 -33.3666 -33.3633 -14.0638 -14.0525 -14.0331 -14.0196
   -13.9140 -13.8777 -13.8634 -13.8372 -13.7370 -13.7172 -13.6974 -13.6958
     3.2007   3.7399   4.2493   4.3832   4.4418   4.5307   4.7207   4.8060

          k =-0.3750 0.6851-0.1074 ( 18504 PWs)   bands (ev):

   -33.3836 -33.3747 -33.3667 -33.3632 -14.0637 -14.0525 -14.0331 -14.0197
   -13.9139 -13.8776 -13.8635 -13.8372 -13.7371 -13.7172 -13.6974 -13.6957
     3.2006   3.7400   4.2494   4.3834   4.4411   4.5312   4.7199   4.8066

          k = 0.3750-0.6851-0.1074 ( 18504 PWs)   bands (ev):

   -33.3836 -33.3748 -33.3666 -33.3633 -14.0639 -14.0524 -14.0331 -14.0196
   -13.9140 -13.8776 -13.8634 -13.8373 -13.7371 -13.7172 -13.6974 -13.6958
     3.2007   3.7399   4.2492   4.3832   4.4417   4.5307   4.7207   4.8061

          k =-0.3750-0.6851 0.3223 ( 18506 PWs)   bands (ev):

   -33.3811 -33.3775 -33.3655 -33.3642 -14.0941 -14.0876 -14.0436 -14.0360
   -13.8739 -13.8577 -13.8333 -13.8207 -13.7365 -13.7199 -13.7033 -13.6978
     3.4365   3.7978   3.9840   4.1937   4.4592   4.5326   4.6700   4.7140

          k =-0.3750 0.6851-0.3223 ( 18505 PWs)   bands (ev):

   -33.3812 -33.3774 -33.3656 -33.3640 -14.0941 -14.0876 -14.0436 -14.0361
   -13.8737 -13.8576 -13.8336 -13.8206 -13.7365 -13.7200 -13.7034 -13.6977
     3.4364   3.7981   3.9841   4.1935   4.4583   4.5338   4.6691   4.7146

          k = 0.3750-0.6851-0.3223 ( 18506 PWs)   bands (ev):

   -33.3811 -33.3775 -33.3655 -33.3642 -14.0942 -14.0875 -14.0436 -14.0360
   -13.8738 -13.8577 -13.8332 -13.8208 -13.7365 -13.7200 -13.7033 -13.6978
     3.4365   3.7978   3.9840   4.1937   4.4592   4.5326   4.6700   4.7140

!    total energy              =    -303.14981403 Ry
     Harris-Foulkes estimate   =    -303.14981403 Ry
     estimated scf accuracy    <          3.2E-09 Ry

     The total energy is the sum of the following terms:

     one-electron contribution =    -103.47984764 Ry
     hartree contribution      =      62.75243304 Ry
     xc contribution           =     -47.29099698 Ry
     ewald contribution        =    -215.13140245 Ry

     convergence has been achieved in  15 iterations

     Forces acting on atoms (Ry/au):

     atom    1 type  2   force =    -0.00015374   -0.00051296   -0.00018271
     atom    2 type  2   force =     0.00009645    0.00002053   -0.00018561
     atom    3 type  2   force =     0.00002458   -0.00002220    0.00003383
     atom    4 type  2   force =     0.00007850    0.00053880    0.00011481
     atom    5 type  1   force =    -0.00001540   -0.00000368   -0.00001422
     atom    6 type  1   force =     0.00001826   -0.00000474   -0.00000687
     atom    7 type  1   force =    -0.00002604   -0.00000129    0.00015191
     atom    8 type  1   force =     0.00001366   -0.00000238    0.00000597
     atom    9 type  1   force =    -0.00018472   -0.00000300    0.00020712
     atom   10 type  1   force =     0.00017469   -0.00000201    0.00012986
     atom   11 type  1   force =    -0.00021877   -0.00000405   -0.00016140
     atom   12 type  1   force =     0.00019253   -0.00000302   -0.00009270

     Total force =     0.000625     Total SCF correction =     0.000248
     SCF correction compared to forces is large: reduce conv_thr to get better values


     entering subroutine stress ...

          total   stress  (Ry/bohr**3)                   (kbar)     P=  100.23
   0.00067936  -0.00000000  -0.00000038         99.94     -0.00     -0.06
  -0.00000000   0.00068246  -0.00000000         -0.00    100.39     -0.00
  -0.00000038  -0.00000000   0.00068230         -0.06     -0.00    100.37


     Writing output data file CaH2_ambient.save

     init_run     :    443.25s CPU    452.55s WALL (       2 calls)
     electrons    :  19959.11s CPU  20326.37s WALL (      15 calls)
     update_pot   :   1371.84s CPU   1376.97s WALL (      13 calls)
     forces       :    832.74s CPU    838.25s WALL (      15 calls)
     stress       :   1918.39s CPU   1932.24s WALL (      15 calls)

     Called by init_run:
     wfcinit      :    325.24s CPU    333.30s WALL (       2 calls)
     potinit      :     53.60s CPU     53.85s WALL (       2 calls)

     Called by electrons:
     c_bands      :  17752.12s CPU  18082.61s WALL (     109 calls)
     sum_band     :   2078.58s CPU   2112.37s WALL (     109 calls)
     v_of_rho     :     59.78s CPU     60.91s WALL (     118 calls)
     mix_rho      :     73.80s CPU     75.35s WALL (     109 calls)

     Called by c_bands:
     init_us_2    :    474.77s CPU    478.96s WALL (   12000 calls)
     cegterg      :  17174.08s CPU  17290.68s WALL (    5232 calls)

     Called by *egterg:
     h_psi        :  12883.19s CPU  12965.04s WALL (   19181 calls)
     g_psi        :     65.62s CPU     66.06s WALL (   13853 calls)
     cdiaghg      :     50.03s CPU     50.76s WALL (   18173 calls)

     Called by h_psi:
     add_vuspsi   :   1288.61s CPU   1296.54s WALL (   19181 calls)

     General routines
     calbec       :   1364.35s CPU   1371.34s WALL (   20621 calls)
     fft          :     24.32s CPU     24.49s WALL (    1428 calls)
     ffts         :     31.19s CPU     31.36s WALL (    1850 calls)
     fftw         :  10062.92s CPU  10126.35s WALL (  846964 calls)
     davcio       :      2.44s CPU    243.51s WALL (   17232 calls)


     PWSCF        :     6h48m CPU        6h55m WALL


   This run was terminated on:  15:59:39  12Jun2014            

=------------------------------------------------------------------------------=
   JOB DONE.
=------------------------------------------------------------------------------=
