
     Program PWSCF v.5.0.2 (svn rev. 9392) starts on 12Jun2014 at 15:59:39 

     This program is part of the open-source Quantum ESPRESSO suite
     for quantum simulation of materials; please cite
         "P. Giannozzi et al., J. Phys.:Condens. Matter 21 395502 (2009);
          URL http://www.quantum-espresso.org", 
     in publications or presentations arising from this work. More details at
     http://www.quantum-espresso.org/quote.php

     Serial version

     Current dimensions of program PWSCF are:
     Max number of different atomic species (ntypx) = 10
     Max number of k-points (npk) =  40000
     Max angular momentum in pseudopotentials (lmaxx) =  3
     Waiting for input...
     Reading input from standard input

     G-vector sticks info
     --------------------
     sticks:   dense  smooth     PW     G-vecs:    dense   smooth      PW
     Sum        2573    2573    705               144657   144657   20749



     bravais-lattice index     =            8
     lattice parameter (alat)  =      10.5580  a.u.
     unit-cell volume          =     815.0461 (a.u.)^3
     number of atoms/cell      =           12
     number of atomic types    =            2
     number of electrons       =        48.00
     number of Kohn-Sham states=           24
     kinetic-energy cutoff     =     120.0000  Ry
     charge density cutoff     =     480.0000  Ry
     convergence threshold     =      1.0E-06
     mixing beta               =       0.3000
     number of iterations used =           16  local-TF  mixing
     Exchange-correlation      = BLYP ( 1 3 1 3 0)
     EXX-fraction              =        0.00
     nstep                     =           50


     celldm(1)=  10.558000  celldm(2)=   0.604300  celldm(3)=   1.146000
     celldm(4)=   0.000000  celldm(5)=   0.000000  celldm(6)=   0.000000

     crystal axes: (cart. coord. in units of alat)
               a(1) = (   1.000000   0.000000   0.000000 )  
               a(2) = (   0.000000   0.604300   0.000000 )  
               a(3) = (   0.000000   0.000000   1.146000 )  

     reciprocal axes: (cart. coord. in units 2 pi/alat)
               b(1) = (  1.000000  0.000000  0.000000 )  
               b(2) = (  0.000000  1.654807  0.000000 )  
               b(3) = (  0.000000  0.000000  0.872600 )  


     PseudoPot. # 1 for H  read from file:
     /home/ilia/espresso/pseudo/H.blyp-vbc.UPF
     MD5 check sum: 64d25ad537c4b939b17faee1147b797b
     Pseudo is Norm-conserving, Zval =  1.0
     Generated by new atomic code, or converted to UPF format
     Using radial grid of  243 points,  0 beta functions with: 

     PseudoPot. # 2 for Ca read from file:
     /home/ilia/espresso/pseudo/Ca.blyp-sp-hgh.UPF
     MD5 check sum: 357a6b692114ea82b84239caae8ecfc0
     Pseudo is Norm-conserving, Zval = 10.0
     Generated in analytical, separable form
     Using radial grid of 1169 points,  5 beta functions with: 
                l(1) =   0
                l(2) =   0
                l(3) =   1
                l(4) =   1
                l(5) =   2

     atomic species   valence    mass     pseudopotential
        H              1.00     1.00700     H ( 1.00)
        Ca            10.00    40.07800     Ca( 1.00)

     No symmetry found
          (note:  1 additional sym.ops. were found but ignored
           their fractional translations are incommensurate with FFT grid)


   Cartesian axes

     site n.     atom                  positions (alat units)
         1           Ca  tau(   1) = (   0.2400000   0.1510750   0.1259454  )
         2           Ca  tau(   2) = (   0.2600000  -0.1510750   0.6989454  )
         3           Ca  tau(   3) = (   0.7400000   0.1510750   0.4470546  )
         4           Ca  tau(   4) = (  -0.2400000  -0.1510750  -0.1259454  )
         5           H   tau(   5) = (   0.3557000   0.1510750   0.4887690  )
         6           H   tau(   6) = (   0.1443000  -0.1510750   1.0617690  )
         7           H   tau(   7) = (   0.8557000   0.1510750   0.0842310  )
         8           H   tau(   8) = (  -0.3557000  -0.1510750  -0.4922070  )
         9           H   tau(   9) = (   0.9754000   0.1510750   0.7752690  )
        10           H   tau(  10) = (  -0.4754000  -0.1510750   1.3482690  )
        11           H   tau(  11) = (   1.4754000   0.1510750  -0.1988310  )
        12           H   tau(  12) = (  -0.9754000  -0.1510750  -0.7752690  )

     number of k points=    48
                       cart. coord. in units 2pi/alat
        k(    1) = (   0.1250000   0.1379006   0.1090750), wk =   0.0416667
        k(    2) = (   0.1250000   0.1379006   0.3272251), wk =   0.0416667
        k(    3) = (   0.1250000   0.4137018   0.1090750), wk =   0.0416667
        k(    4) = (   0.1250000   0.4137018   0.3272251), wk =   0.0416667
        k(    5) = (   0.1250000   0.6895030   0.1090750), wk =   0.0416667
        k(    6) = (   0.1250000   0.6895030   0.3272251), wk =   0.0416667
        k(    7) = (   0.3750000   0.1379006   0.1090750), wk =   0.0416667
        k(    8) = (   0.3750000   0.1379006   0.3272251), wk =   0.0416667
        k(    9) = (   0.3750000   0.4137018   0.1090750), wk =   0.0416667
        k(   10) = (   0.3750000   0.4137018   0.3272251), wk =   0.0416667
        k(   11) = (   0.3750000   0.6895030   0.1090750), wk =   0.0416667
        k(   12) = (   0.3750000   0.6895030   0.3272251), wk =   0.0416667
        k(   13) = (  -0.1250000  -0.1379006   0.1090750), wk =   0.0416667
        k(   14) = (  -0.1250000   0.1379006  -0.1090750), wk =   0.0416667
        k(   15) = (   0.1250000  -0.1379006  -0.1090750), wk =   0.0416667
        k(   16) = (  -0.1250000  -0.1379006   0.3272251), wk =   0.0416667
        k(   17) = (  -0.1250000   0.1379006  -0.3272251), wk =   0.0416667
        k(   18) = (   0.1250000  -0.1379006  -0.3272251), wk =   0.0416667
        k(   19) = (  -0.1250000  -0.4137018   0.1090750), wk =   0.0416667
        k(   20) = (  -0.1250000   0.4137018  -0.1090750), wk =   0.0416667
        k(   21) = (   0.1250000  -0.4137018  -0.1090750), wk =   0.0416667
        k(   22) = (  -0.1250000  -0.4137018   0.3272251), wk =   0.0416667
        k(   23) = (  -0.1250000   0.4137018  -0.3272251), wk =   0.0416667
        k(   24) = (   0.1250000  -0.4137018  -0.3272251), wk =   0.0416667
        k(   25) = (  -0.1250000  -0.6895030   0.1090750), wk =   0.0416667
        k(   26) = (  -0.1250000   0.6895030  -0.1090750), wk =   0.0416667
        k(   27) = (   0.1250000  -0.6895030  -0.1090750), wk =   0.0416667
        k(   28) = (  -0.1250000  -0.6895030   0.3272251), wk =   0.0416667
        k(   29) = (  -0.1250000   0.6895030  -0.3272251), wk =   0.0416667
        k(   30) = (   0.1250000  -0.6895030  -0.3272251), wk =   0.0416667
        k(   31) = (  -0.3750000  -0.1379006   0.1090750), wk =   0.0416667
        k(   32) = (  -0.3750000   0.1379006  -0.1090750), wk =   0.0416667
        k(   33) = (   0.3750000  -0.1379006  -0.1090750), wk =   0.0416667
        k(   34) = (  -0.3750000  -0.1379006   0.3272251), wk =   0.0416667
        k(   35) = (  -0.3750000   0.1379006  -0.3272251), wk =   0.0416667
        k(   36) = (   0.3750000  -0.1379006  -0.3272251), wk =   0.0416667
        k(   37) = (  -0.3750000  -0.4137018   0.1090750), wk =   0.0416667
        k(   38) = (  -0.3750000   0.4137018  -0.1090750), wk =   0.0416667
        k(   39) = (   0.3750000  -0.4137018  -0.1090750), wk =   0.0416667
        k(   40) = (  -0.3750000  -0.4137018   0.3272251), wk =   0.0416667
        k(   41) = (  -0.3750000   0.4137018  -0.3272251), wk =   0.0416667
        k(   42) = (   0.3750000  -0.4137018  -0.3272251), wk =   0.0416667
        k(   43) = (  -0.3750000  -0.6895030   0.1090750), wk =   0.0416667
        k(   44) = (  -0.3750000   0.6895030  -0.1090750), wk =   0.0416667
        k(   45) = (   0.3750000  -0.6895030  -0.1090750), wk =   0.0416667
        k(   46) = (  -0.3750000  -0.6895030   0.3272251), wk =   0.0416667
        k(   47) = (  -0.3750000   0.6895030  -0.3272251), wk =   0.0416667
        k(   48) = (   0.3750000  -0.6895030  -0.3272251), wk =   0.0416667

     Dense  grid:   144657 G-vectors     FFT dimensions: (  75,  45,  90)

     Largest allocated arrays     est. size (Mb)     dimensions
        Kohn-Sham Wavefunctions         6.64 Mb     (  18122,   24)
        NL pseudopotentials            14.38 Mb     (  18122,   52)
        Each V/rho on FFT grid          4.63 Mb     ( 303750)
        Each G-vector array             1.10 Mb     ( 144657)
        G-vector shells                 1.10 Mb     ( 144657)
     Largest temporary arrays     est. size (Mb)     dimensions
        Auxiliary wavefunctions        26.55 Mb     (  18122,   96)
        Each subspace H/S matrix        0.14 Mb     (  96,  96)
        Each <psi_i|beta_j> matrix      0.02 Mb     (     52,   24)
        Arrays for rho mixing          74.16 Mb     ( 303750,  16)

     Initial potential from superposition of free atoms

     starting charge   47.97855, renormalised to   48.00000
     Starting wfc are   60 randomized atomic wfcs

     total cpu time spent up to now is      240.4 secs

     per-process dynamical memory:    76.4 Mb

     Self-consistent Calculation

     iteration #  1     ecut=   120.00 Ry     beta=0.30
     Davidson diagonalization with overlap
     ethr =  1.00E-02,  avg # of iterations =  2.0

     total cpu time spent up to now is      393.8 secs

     total energy              =    -303.21088493 Ry
     Harris-Foulkes estimate   =    -303.27032374 Ry
     estimated scf accuracy    <       0.53593020 Ry

     iteration #  2     ecut=   120.00 Ry     beta=0.30
     Davidson diagonalization with overlap
     ethr =  1.12E-03,  avg # of iterations =  1.0

     total cpu time spent up to now is      528.1 secs

     total energy              =    -303.09110740 Ry
     Harris-Foulkes estimate   =    -303.21945400 Ry
     estimated scf accuracy    <       0.33454523 Ry

     iteration #  3     ecut=   120.00 Ry     beta=0.30
     Davidson diagonalization with overlap
     ethr =  6.97E-04,  avg # of iterations =  2.0

     total cpu time spent up to now is      683.6 secs

     total energy              =    -303.13081636 Ry
     Harris-Foulkes estimate   =    -303.13152676 Ry
     estimated scf accuracy    <       0.00935568 Ry

     iteration #  4     ecut=   120.00 Ry     beta=0.30
     Davidson diagonalization with overlap
     ethr =  1.95E-05,  avg # of iterations =  3.1

     total cpu time spent up to now is      847.9 secs

     total energy              =    -303.13373265 Ry
     Harris-Foulkes estimate   =    -303.13322571 Ry
     estimated scf accuracy    <       0.00268670 Ry

     iteration #  5     ecut=   120.00 Ry     beta=0.30
     Davidson diagonalization with overlap
     ethr =  5.60E-06,  avg # of iterations =  3.7

     total cpu time spent up to now is     1032.6 secs

     total energy              =    -303.13435224 Ry
     Harris-Foulkes estimate   =    -303.13443123 Ry
     estimated scf accuracy    <       0.00023374 Ry

     iteration #  6     ecut=   120.00 Ry     beta=0.30
     Davidson diagonalization with overlap
     ethr =  4.87E-07,  avg # of iterations =  3.1

     total cpu time spent up to now is     1221.2 secs

     total energy              =    -303.13443130 Ry
     Harris-Foulkes estimate   =    -303.13441886 Ry
     estimated scf accuracy    <       0.00002098 Ry

     iteration #  7     ecut=   120.00 Ry     beta=0.30
     Davidson diagonalization with overlap
     ethr =  4.37E-08,  avg # of iterations =  3.1

     total cpu time spent up to now is     1406.4 secs

     total energy              =    -303.13443554 Ry
     Harris-Foulkes estimate   =    -303.13443563 Ry
     estimated scf accuracy    <       0.00000178 Ry

     iteration #  8     ecut=   120.00 Ry     beta=0.30
     Davidson diagonalization with overlap
     ethr =  3.70E-09,  avg # of iterations =  3.1

     total cpu time spent up to now is     1622.8 secs

     End of self-consistent calculation

          k = 0.1250 0.1379 0.1091 ( 18078 PWs)   bands (ev):

   -33.1578 -33.1077 -33.0935 -33.0770 -13.8691 -13.7675 -13.7210 -13.5900
   -13.5139 -13.4786 -13.4723 -13.4122 -13.3941 -13.3744 -13.3625 -13.3587
     1.0187   3.4034   3.8456   4.4213   4.8345   5.0437   5.2978   6.0954

          k = 0.1250 0.1379 0.3272 ( 18096 PWs)   bands (ev):

   -33.1476 -33.1218 -33.0923 -33.0746 -13.8250 -13.7626 -13.6523 -13.6071
   -13.5522 -13.5085 -13.4567 -13.4301 -13.4131 -13.3785 -13.3739 -13.3621
     1.5066   2.3704   4.1111   4.5054   4.9966   5.0220   5.5935   6.0228

          k = 0.1250 0.4137 0.1091 ( 18089 PWs)   bands (ev):

   -33.1374 -33.0949 -33.0858 -33.0646 -13.8146 -13.7089 -13.7051 -13.6204
   -13.5873 -13.5645 -13.5439 -13.5034 -13.4902 -13.4704 -13.3853 -13.3722
     1.7741   3.7796   4.1315   4.5174   4.8400   4.9371   5.1505   5.6605

          k = 0.1250 0.4137 0.3272 ( 18122 PWs)   bands (ev):

   -33.1305 -33.1058 -33.0834 -33.0633 -13.7839 -13.7397 -13.6695 -13.6339
   -13.6113 -13.5818 -13.5453 -13.5067 -13.4690 -13.4341 -13.4086 -13.3838
     2.1938   2.9339   4.2953   4.5679   4.8857   4.9100   5.3328   5.5943

          k = 0.1250 0.6895 0.1091 ( 18108 PWs)   bands (ev):

   -33.1143 -33.0846 -33.0782 -33.0520 -13.7933 -13.7733 -13.7401 -13.7205
   -13.6528 -13.6296 -13.5939 -13.5308 -13.4976 -13.4426 -13.4281 -13.3958
     3.0272   4.2901   4.3470   4.4640   4.6322   4.7084   4.8122   5.0202

          k = 0.1250 0.6895 0.3272 ( 18096 PWs)   bands (ev):

   -33.1128 -33.0875 -33.0768 -33.0519 -13.8293 -13.8151 -13.7224 -13.7059
   -13.6696 -13.6473 -13.5615 -13.5330 -13.4564 -13.4332 -13.4155 -13.4043
     3.3141   3.8125   4.4583   4.5304   4.6180   4.6608   4.7619   4.8524

          k = 0.3750 0.1379 0.1091 ( 18069 PWs)   bands (ev):

   -33.1401 -33.1174 -33.0932 -33.0854 -13.8396 -13.8233 -13.7315 -13.5561
   -13.4792 -13.4609 -13.4458 -13.4255 -13.4157 -13.3913 -13.3799 -13.3707
     1.6364   2.6776   3.7846   4.3525   4.6853   5.0508   5.7315   6.0801

          k = 0.3750 0.1379 0.3272 ( 18069 PWs)   bands (ev):

   -33.1333 -33.1184 -33.0982 -33.0863 -13.7955 -13.7568 -13.7277 -13.6260
   -13.5018 -13.4866 -13.4408 -13.4199 -13.4096 -13.3989 -13.3867 -13.3764
     2.0740   2.8074   3.1066   3.6834   5.2965   5.5383   5.6419   5.9487

          k = 0.3750 0.4137 0.1091 ( 18074 PWs)   bands (ev):

   -33.1224 -33.1031 -33.0836 -33.0735 -13.7907 -13.7743 -13.7266 -13.6259
   -13.5973 -13.5526 -13.5119 -13.4889 -13.4586 -13.4277 -13.4108 -13.4034
     2.3024   3.1773   4.1141   4.5452   4.7642   5.0478   5.3559   5.5605

          k = 0.3750 0.4137 0.3272 ( 18089 PWs)   bands (ev):

   -33.1181 -33.1039 -33.0868 -33.0740 -13.7815 -13.7550 -13.7336 -13.6761
   -13.5561 -13.5356 -13.5030 -13.4861 -13.4808 -13.4534 -13.4069 -13.4015
     2.6743   3.2899   3.5361   3.9980   5.1277   5.2571   5.3544   5.5257

          k = 0.3750 0.6895 0.1091 ( 18120 PWs)   bands (ev):

   -33.1036 -33.0886 -33.0754 -33.0615 -13.8053 -13.7909 -13.7757 -13.7566
   -13.6365 -13.5945 -13.5752 -13.5488 -13.4599 -13.4317 -13.4224 -13.4012
     3.3823   3.9209   4.4566   4.5541   4.6444   4.7196   4.8828   4.9809

          k = 0.3750 0.6895 0.3272 ( 18101 PWs)   bands (ev):

   -33.1027 -33.0888 -33.0759 -33.0616 -13.8394 -13.8298 -13.7888 -13.7772
   -13.5883 -13.5664 -13.5439 -13.5303 -13.4606 -13.4405 -13.4207 -13.4076
     3.6191   3.9791   4.1641   4.3682   4.6479   4.7039   4.8605   4.9067

          k =-0.1250-0.1379 0.1091 ( 18078 PWs)   bands (ev):

   -33.1578 -33.1077 -33.0937 -33.0770 -13.8691 -13.7675 -13.7211 -13.5907
   -13.5133 -13.4784 -13.4724 -13.4118 -13.3937 -13.3745 -13.3622 -13.3597
     1.0190   3.3994   3.8502   4.4197   4.8400   5.0363   5.3013   6.0943

          k =-0.1250 0.1379-0.1091 ( 18078 PWs)   bands (ev):

   -33.1578 -33.1077 -33.0935 -33.0770 -13.8691 -13.7675 -13.7210 -13.5900
   -13.5139 -13.4787 -13.4722 -13.4122 -13.3941 -13.3744 -13.3626 -13.3587
     1.0187   3.4034   3.8456   4.4213   4.8345   5.0438   5.2978   6.0954

          k = 0.1250-0.1379-0.1091 ( 18078 PWs)   bands (ev):

   -33.1578 -33.1077 -33.0937 -33.0770 -13.8691 -13.7675 -13.7211 -13.5907
   -13.5133 -13.4786 -13.4723 -13.4118 -13.3938 -13.3745 -13.3621 -13.3598
     1.0190   3.3994   3.8502   4.4197   4.8400   5.0363   5.3013   6.0943

          k =-0.1250-0.1379 0.3272 ( 18096 PWs)   bands (ev):

   -33.1476 -33.1218 -33.0924 -33.0745 -13.8249 -13.7626 -13.6527 -13.6075
   -13.5519 -13.5080 -13.4567 -13.4294 -13.4131 -13.3791 -13.3742 -13.3621
     1.5075   2.3686   4.1147   4.5001   5.0026   5.0191   5.5949   6.0206

          k =-0.1250 0.1379-0.3272 ( 18096 PWs)   bands (ev):

   -33.1476 -33.1218 -33.0923 -33.0746 -13.8250 -13.7626 -13.6523 -13.6071
   -13.5522 -13.5084 -13.4567 -13.4301 -13.4131 -13.3785 -13.3739 -13.3621
     1.5066   2.3703   4.1111   4.5054   4.9966   5.0220   5.5935   6.0228

          k = 0.1250-0.1379-0.3272 ( 18096 PWs)   bands (ev):

   -33.1476 -33.1218 -33.0924 -33.0745 -13.8249 -13.7625 -13.6527 -13.6075
   -13.5520 -13.5081 -13.4567 -13.4294 -13.4130 -13.3791 -13.3742 -13.3620
     1.5075   2.3686   4.1147   4.5001   5.0026   5.0191   5.5949   6.0206

          k =-0.1250-0.4137 0.1091 ( 18089 PWs)   bands (ev):

   -33.1374 -33.0948 -33.0859 -33.0646 -13.8146 -13.7082 -13.7057 -13.6206
   -13.5874 -13.5641 -13.5442 -13.5039 -13.4901 -13.4697 -13.3847 -13.3730
     1.7743   3.7776   4.1357   4.5132   4.8435   4.9338   5.1522   5.6603

          k =-0.1250 0.4137-0.1091 ( 18089 PWs)   bands (ev):

   -33.1374 -33.0949 -33.0858 -33.0646 -13.8146 -13.7089 -13.7051 -13.6203
   -13.5873 -13.5644 -13.5439 -13.5034 -13.4903 -13.4704 -13.3854 -13.3722
     1.7741   3.7795   4.1315   4.5174   4.8400   4.9371   5.1505   5.6605

          k = 0.1250-0.4137-0.1091 ( 18089 PWs)   bands (ev):

   -33.1374 -33.0948 -33.0859 -33.0646 -13.8146 -13.7082 -13.7056 -13.6206
   -13.5875 -13.5641 -13.5442 -13.5039 -13.4901 -13.4696 -13.3846 -13.3731
     1.7743   3.7776   4.1357   4.5132   4.8435   4.9338   5.1522   5.6603

          k =-0.1250-0.4137 0.3272 ( 18122 PWs)   bands (ev):

   -33.1305 -33.1058 -33.0835 -33.0632 -13.7839 -13.7396 -13.6699 -13.6337
   -13.6116 -13.5816 -13.5452 -13.5067 -13.4697 -13.4329 -13.4080 -13.3849
     2.1943   2.9330   4.3000   4.5601   4.8900   4.9090   5.3334   5.5938

          k =-0.1250 0.4137-0.3272 ( 18122 PWs)   bands (ev):

   -33.1305 -33.1058 -33.0834 -33.0633 -13.7839 -13.7397 -13.6696 -13.6339
   -13.6112 -13.5817 -13.5452 -13.5068 -13.4689 -13.4340 -13.4087 -13.3838
     2.1938   2.9339   4.2953   4.5679   4.8857   4.9100   5.3328   5.5943

          k = 0.1250-0.4137-0.3272 ( 18122 PWs)   bands (ev):

   -33.1305 -33.1058 -33.0835 -33.0632 -13.7839 -13.7395 -13.6697 -13.6338
   -13.6115 -13.5817 -13.5453 -13.5066 -13.4698 -13.4329 -13.4079 -13.3848
     2.1943   2.9330   4.3000   4.5601   4.8900   4.9090   5.3334   5.5938

          k =-0.1250-0.6895 0.1091 ( 18108 PWs)   bands (ev):

   -33.1143 -33.0846 -33.0782 -33.0520 -13.7933 -13.7732 -13.7406 -13.7202
   -13.6525 -13.6293 -13.5943 -13.5307 -13.4981 -13.4420 -13.4284 -13.3957
     3.0271   4.2908   4.3470   4.4651   4.6358   4.7016   4.8132   5.0205

          k =-0.1250 0.6895-0.1091 ( 18108 PWs)   bands (ev):

   -33.1143 -33.0846 -33.0782 -33.0520 -13.7934 -13.7733 -13.7401 -13.7205
   -13.6528 -13.6297 -13.5938 -13.5309 -13.4975 -13.4425 -13.4282 -13.3958
     3.0272   4.2901   4.3470   4.4640   4.6323   4.7084   4.8122   5.0202

          k = 0.1250-0.6895-0.1091 ( 18108 PWs)   bands (ev):

   -33.1143 -33.0846 -33.0782 -33.0520 -13.7932 -13.7733 -13.7406 -13.7202
   -13.6525 -13.6293 -13.5944 -13.5307 -13.4981 -13.4420 -13.4284 -13.3958
     3.0271   4.2908   4.3470   4.4651   4.6358   4.7016   4.8132   5.0205

          k =-0.1250-0.6895 0.3272 ( 18096 PWs)   bands (ev):

   -33.1128 -33.0875 -33.0768 -33.0519 -13.8293 -13.8151 -13.7226 -13.7058
   -13.6692 -13.6473 -13.5617 -13.5330 -13.4575 -13.4317 -13.4157 -13.4046
     3.3139   3.8130   4.4604   4.5321   4.6128   4.6601   4.7643   4.8514

          k =-0.1250 0.6895-0.3272 ( 18096 PWs)   bands (ev):

   -33.1128 -33.0875 -33.0768 -33.0519 -13.8293 -13.8151 -13.7224 -13.7059
   -13.6696 -13.6473 -13.5614 -13.5331 -13.4564 -13.4332 -13.4156 -13.4043
     3.3141   3.8125   4.4583   4.5304   4.6180   4.6608   4.7619   4.8524

          k = 0.1250-0.6895-0.3272 ( 18096 PWs)   bands (ev):

   -33.1128 -33.0875 -33.0768 -33.0519 -13.8292 -13.8152 -13.7226 -13.7058
   -13.6692 -13.6474 -13.5617 -13.5329 -13.4576 -13.4317 -13.4156 -13.4046
     3.3139   3.8130   4.4604   4.5321   4.6128   4.6602   4.7643   4.8514

          k =-0.3750-0.1379 0.1091 ( 18069 PWs)   bands (ev):

   -33.1402 -33.1173 -33.0935 -33.0852 -13.8394 -13.8236 -13.7314 -13.5559
   -13.4801 -13.4606 -13.4454 -13.4248 -13.4159 -13.3919 -13.3802 -13.3705
     1.6370   2.6768   3.7793   4.3633   4.6817   5.0499   5.7303   6.0801

          k =-0.3750 0.1379-0.1091 ( 18069 PWs)   bands (ev):

   -33.1401 -33.1174 -33.0932 -33.0854 -13.8396 -13.8233 -13.7315 -13.5561
   -13.4792 -13.4609 -13.4459 -13.4254 -13.4156 -13.3914 -13.3799 -13.3707
     1.6364   2.6776   3.7846   4.3525   4.6853   5.0508   5.7315   6.0801

          k = 0.3750-0.1379-0.1091 ( 18069 PWs)   bands (ev):

   -33.1402 -33.1173 -33.0935 -33.0852 -13.8394 -13.8236 -13.7314 -13.5559
   -13.4801 -13.4605 -13.4455 -13.4248 -13.4158 -13.3920 -13.3802 -13.3704
     1.6370   2.6768   3.7793   4.3633   4.6817   5.0499   5.7303   6.0801

          k =-0.3750-0.1379 0.3272 ( 18069 PWs)   bands (ev):

   -33.1334 -33.1183 -33.0984 -33.0862 -13.7952 -13.7575 -13.7275 -13.6256
   -13.5027 -13.4860 -13.4407 -13.4195 -13.4090 -13.3998 -13.3870 -13.3761
     2.0763   2.8004   3.1098   3.6846   5.3041   5.5252   5.6487   5.9473

          k =-0.3750 0.1379-0.3272 ( 18069 PWs)   bands (ev):

   -33.1333 -33.1184 -33.0982 -33.0863 -13.7955 -13.7568 -13.7277 -13.6260
   -13.5019 -13.4865 -13.4409 -13.4199 -13.4095 -13.3989 -13.3867 -13.3764
     2.0740   2.8074   3.1066   3.6833   5.2965   5.5383   5.6419   5.9487

          k = 0.3750-0.1379-0.3272 ( 18069 PWs)   bands (ev):

   -33.1334 -33.1183 -33.0984 -33.0862 -13.7952 -13.7575 -13.7275 -13.6256
   -13.5027 -13.4860 -13.4407 -13.4195 -13.4091 -13.3999 -13.3870 -13.3761
     2.0763   2.8004   3.1098   3.6847   5.3041   5.5252   5.6487   5.9473

          k =-0.3750-0.4137 0.1091 ( 18074 PWs)   bands (ev):

   -33.1224 -33.1031 -33.0838 -33.0734 -13.7906 -13.7746 -13.7265 -13.6258
   -13.5971 -13.5525 -13.5122 -13.4887 -13.4593 -13.4267 -13.4106 -13.4040
     2.3028   3.1770   4.1144   4.5386   4.7728   5.0461   5.3552   5.5605

          k =-0.3750 0.4137-0.1091 ( 18074 PWs)   bands (ev):

   -33.1224 -33.1031 -33.0836 -33.0735 -13.7908 -13.7743 -13.7265 -13.6259
   -13.5973 -13.5526 -13.5119 -13.4890 -13.4585 -13.4277 -13.4109 -13.4034
     2.3024   3.1773   4.1141   4.5452   4.7642   5.0478   5.3559   5.5605

          k = 0.3750-0.4137-0.1091 ( 18074 PWs)   bands (ev):

   -33.1224 -33.1031 -33.0838 -33.0734 -13.7906 -13.7745 -13.7265 -13.6259
   -13.5972 -13.5526 -13.5123 -13.4887 -13.4592 -13.4267 -13.4106 -13.4040
     2.3028   3.1770   4.1144   4.5386   4.7728   5.0461   5.3552   5.5605

          k =-0.3750-0.4137 0.3272 ( 18089 PWs)   bands (ev):

   -33.1181 -33.1038 -33.0869 -33.0740 -13.7814 -13.7552 -13.7337 -13.6758
   -13.5559 -13.5353 -13.5037 -13.4863 -13.4809 -13.4528 -13.4061 -13.4024
     2.6755   3.2857   3.5404   3.9958   5.1351   5.2469   5.3591   5.5248

          k =-0.3750 0.4137-0.3272 ( 18089 PWs)   bands (ev):

   -33.1181 -33.1039 -33.0868 -33.0740 -13.7816 -13.7549 -13.7336 -13.6760
   -13.5560 -13.5356 -13.5029 -13.4862 -13.4808 -13.4534 -13.4069 -13.4015
     2.6743   3.2898   3.5361   3.9980   5.1278   5.2571   5.3544   5.5257

          k = 0.3750-0.4137-0.3272 ( 18089 PWs)   bands (ev):

   -33.1181 -33.1038 -33.0869 -33.0740 -13.7813 -13.7553 -13.7337 -13.6759
   -13.5559 -13.5355 -13.5037 -13.4863 -13.4808 -13.4528 -13.4060 -13.4024
     2.6755   3.2857   3.5404   3.9958   5.1351   5.2469   5.3591   5.5248

          k =-0.3750-0.6895 0.1091 ( 18120 PWs)   bands (ev):

   -33.1036 -33.0886 -33.0755 -33.0615 -13.8054 -13.7909 -13.7759 -13.7565
   -13.6359 -13.5949 -13.5751 -13.5489 -13.4602 -13.4319 -13.4220 -13.4011
     3.3821   3.9216   4.4578   4.5581   4.6401   4.7169   4.8822   4.9827

          k =-0.3750 0.6895-0.1091 ( 18120 PWs)   bands (ev):

   -33.1036 -33.0886 -33.0754 -33.0615 -13.8054 -13.7909 -13.7757 -13.7566
   -13.6364 -13.5944 -13.5751 -13.5489 -13.4598 -13.4318 -13.4224 -13.4012
     3.3824   3.9209   4.4566   4.5541   4.6444   4.7196   4.8828   4.9809

          k = 0.3750-0.6895-0.1091 ( 18120 PWs)   bands (ev):

   -33.1036 -33.0886 -33.0755 -33.0615 -13.8054 -13.7909 -13.7759 -13.7565
   -13.6360 -13.5950 -13.5751 -13.5489 -13.4601 -13.4319 -13.4220 -13.4011
     3.3821   3.9216   4.4578   4.5581   4.6401   4.7169   4.8822   4.9827

          k =-0.3750-0.6895 0.3272 ( 18101 PWs)   bands (ev):

   -33.1028 -33.0887 -33.0760 -33.0616 -13.8394 -13.8298 -13.7889 -13.7770
   -13.5875 -13.5667 -13.5445 -13.5301 -13.4612 -13.4398 -13.4211 -13.4073
     3.6182   3.9797   4.1697   4.3627   4.6461   4.7058   4.8596   4.9076

          k =-0.3750 0.6895-0.3272 ( 18101 PWs)   bands (ev):

   -33.1027 -33.0888 -33.0759 -33.0616 -13.8394 -13.8297 -13.7889 -13.7771
   -13.5882 -13.5664 -13.5438 -13.5304 -13.4605 -13.4406 -13.4207 -13.4076
     3.6191   3.9791   4.1641   4.3682   4.6479   4.7039   4.8605   4.9067

          k = 0.3750-0.6895-0.3272 ( 18101 PWs)   bands (ev):

   -33.1028 -33.0887 -33.0760 -33.0616 -13.8394 -13.8299 -13.7889 -13.7771
   -13.5875 -13.5667 -13.5446 -13.5300 -13.4612 -13.4398 -13.4211 -13.4073
     3.6182   3.9797   4.1697   4.3627   4.6462   4.7059   4.8596   4.9076

!    total energy              =    -303.13443646 Ry
     Harris-Foulkes estimate   =    -303.13443611 Ry
     estimated scf accuracy    <       0.00000047 Ry

     The total energy is the sum of the following terms:

     one-electron contribution =    -101.25594857 Ry
     hartree contribution      =      62.12990863 Ry
     xc contribution           =     -47.36989031 Ry
     ewald contribution        =    -216.63850622 Ry

     convergence has been achieved in   8 iterations

     Forces acting on atoms (Ry/au):

     atom    1 type  2   force =     0.00192974   -0.00111383    0.00641826
     atom    2 type  2   force =    -0.00226396   -0.00001564    0.00474684
     atom    3 type  2   force =     0.00295142    0.00001407   -0.00695142
     atom    4 type  2   force =    -0.00269273    0.00111628   -0.00635846
     atom    5 type  1   force =    -0.00139483   -0.00000095    0.00047077
     atom    6 type  1   force =     0.00116865    0.00000044   -0.00014409
     atom    7 type  1   force =    -0.00119894   -0.00000082   -0.00012677
     atom    8 type  1   force =     0.00090204    0.00000072    0.00442653
     atom    9 type  1   force =    -0.00070270   -0.00001252    0.00351160
     atom   10 type  1   force =     0.00056835    0.00001209    0.00344350
     atom   11 type  1   force =    -0.00006604   -0.00001247   -0.00600610
     atom   12 type  1   force =     0.00079901    0.00001263   -0.00343067

     Total force =     0.016619     Total SCF correction =     0.002522
     SCF correction compared to forces is large: reduce conv_thr to get better values


     entering subroutine stress ...

          total   stress  (Ry/bohr**3)                   (kbar)     P=  121.57
   0.00078626  -0.00000000  -0.00000407        115.66     -0.00     -0.60
  -0.00000000   0.00083857   0.00000006         -0.00    123.36      0.01
  -0.00000407   0.00000006   0.00085433         -0.60      0.01    125.68


     BFGS Geometry Optimization

     number of scf cycles    =   1
     number of bfgs steps    =   0

     enthalpy new            =    -302.0263220923 Ry

     new trust radius        =       0.0818392595 bohr
     new conv_thr            =       0.0000010000 Ry

     new unit-cell volume =    782.88530 a.u.^3 (   116.01163 Ang^3 )

CELL_PARAMETERS (alat= 10.55800000)
   0.985667245  -0.000000013  -0.000101636
  -0.000000008   0.596428960   0.000000937
  -0.000116475   0.000001777   1.131524919

ATOMIC_POSITIONS (crystal)
Ca       0.240182775   0.250000000   0.110430458    1   0   1
Ca       0.259785569  -0.250000000   0.610292318    1   0   1
Ca       0.740279543   0.250000000   0.389525478    1   0   1
Ca      -0.240255041  -0.250000000  -0.110425516    1   0   1
H        0.355567889   0.250000000   0.426538908    1   0   1
H        0.144410688  -0.250000000   0.926488091    1   0   1
H        0.855586442   0.250000000   0.073489523    1   0   1
H       -0.355614563  -0.250000000  -0.429134155    1   0   1
H        0.975333444   0.250000000   0.676790228    1   0   1
H       -0.475346169  -0.250000000   1.176784599    1   0   1
H        1.475393745   0.250000000  -0.173996394    1   0   1
H       -0.975324322  -0.250000000  -0.676783539    1   0   1



     Writing output data file CaH2_ambient.save
     NEW-OLD atomic charge density approx. for the potential
     NEW k-points:
        k(    1) = (   0.1268290   0.1397203   0.1104832), wk =   0.0416667
        k(    2) = (   0.1268518   0.1397199   0.3314240), wk =   0.0416667
        k(    3) = (   0.1268290   0.4191612   0.1104828), wk =   0.0416667
        k(    4) = (   0.1268518   0.4191609   0.3314236), wk =   0.0416667
        k(    5) = (   0.1268290   0.6986022   0.1104823), wk =   0.0416667
        k(    6) = (   0.1268518   0.6986018   0.3314231), wk =   0.0416667
        k(    7) = (   0.3804643   0.1397203   0.1105093), wk =   0.0416667
        k(    8) = (   0.3804871   0.1397200   0.3314501), wk =   0.0416667
        k(    9) = (   0.3804643   0.4191612   0.1105089), wk =   0.0416667
        k(   10) = (   0.3804871   0.4191609   0.3314497), wk =   0.0416667
        k(   11) = (   0.3804643   0.6986022   0.1105085), wk =   0.0416667
        k(   12) = (   0.3804871   0.6986018   0.3314492), wk =   0.0416667
        k(   13) = (  -0.1268063  -0.1397206   0.1104576), wk =   0.0416667
        k(   14) = (  -0.1268290   0.1397206  -0.1104837), wk =   0.0416667
        k(   15) = (   0.1268063  -0.1397203  -0.1104571), wk =   0.0416667
        k(   16) = (  -0.1267835  -0.1397210   0.3313983), wk =   0.0416667
        k(   17) = (  -0.1268518   0.1397210  -0.3314244), wk =   0.0416667
        k(   18) = (   0.1267835  -0.1397199  -0.3313979), wk =   0.0416667
        k(   19) = (  -0.1268063  -0.4191616   0.1104580), wk =   0.0416667
        k(   20) = (  -0.1268290   0.4191616  -0.1104841), wk =   0.0416667
        k(   21) = (   0.1268063  -0.4191612  -0.1104567), wk =   0.0416667
        k(   22) = (  -0.1267835  -0.4191619   0.3313988), wk =   0.0416667
        k(   23) = (  -0.1268518   0.4191619  -0.3314249), wk =   0.0416667
        k(   24) = (   0.1267835  -0.4191609  -0.3313975), wk =   0.0416667
        k(   25) = (  -0.1268063  -0.6986025   0.1104584), wk =   0.0416667
        k(   26) = (  -0.1268290   0.6986025  -0.1104845), wk =   0.0416667
        k(   27) = (   0.1268062  -0.6986022  -0.1104562), wk =   0.0416667
        k(   28) = (  -0.1267835  -0.6986029   0.3313992), wk =   0.0416667
        k(   29) = (  -0.1268518   0.6986029  -0.3314253), wk =   0.0416667
        k(   30) = (   0.1267835  -0.6986018  -0.3313970), wk =   0.0416667
        k(   31) = (  -0.3804416  -0.1397206   0.1104314), wk =   0.0416667
        k(   32) = (  -0.3804643   0.1397206  -0.1105098), wk =   0.0416667
        k(   33) = (   0.3804416  -0.1397203  -0.1104310), wk =   0.0416667
        k(   34) = (  -0.3804188  -0.1397210   0.3313722), wk =   0.0416667
        k(   35) = (  -0.3804871   0.1397210  -0.3314506), wk =   0.0416667
        k(   36) = (   0.3804188  -0.1397199  -0.3313718), wk =   0.0416667
        k(   37) = (  -0.3804416  -0.4191616   0.1104319), wk =   0.0416667
        k(   38) = (  -0.3804643   0.4191616  -0.1105102), wk =   0.0416667
        k(   39) = (   0.3804415  -0.4191612  -0.1104306), wk =   0.0416667
        k(   40) = (  -0.3804188  -0.4191619   0.3313727), wk =   0.0416667
        k(   41) = (  -0.3804871   0.4191619  -0.3314510), wk =   0.0416667
        k(   42) = (   0.3804188  -0.4191609  -0.3313714), wk =   0.0416667
        k(   43) = (  -0.3804416  -0.6986025   0.1104323), wk =   0.0416667
        k(   44) = (  -0.3804643   0.6986025  -0.1105107), wk =   0.0416667
        k(   45) = (   0.3804415  -0.6986022  -0.1104301), wk =   0.0416667
        k(   46) = (  -0.3804188  -0.6986029   0.3313731), wk =   0.0416667
        k(   47) = (  -0.3804871   0.6986029  -0.3314514), wk =   0.0416667
        k(   48) = (   0.3804188  -0.6986018  -0.3313709), wk =   0.0416667
     extrapolated charge   46.02905, renormalised to   48.00000

     total cpu time spent up to now is     1920.4 secs

     per-process dynamical memory:   102.5 Mb

     Self-consistent Calculation

     iteration #  1     ecut=   120.00 Ry     beta=0.30
     Davidson diagonalization with overlap
     ethr =  1.00E-06,  avg # of iterations =  7.0

     total cpu time spent up to now is     2290.2 secs

     total energy              =    -302.99937903 Ry
     Harris-Foulkes estimate   =    -305.53305327 Ry
     estimated scf accuracy    <       0.08307722 Ry

     iteration #  2     ecut=   120.00 Ry     beta=0.30
     Davidson diagonalization with overlap
     ethr =  1.73E-04,  avg # of iterations =  3.0

     total cpu time spent up to now is     2508.2 secs

     total energy              =    -303.09534303 Ry
     Harris-Foulkes estimate   =    -303.08943985 Ry
     estimated scf accuracy    <       0.00213855 Ry

     iteration #  3     ecut=   120.00 Ry     beta=0.30
     Davidson diagonalization with overlap
     ethr =  4.46E-06,  avg # of iterations =  1.8

     total cpu time spent up to now is     2648.8 secs

     total energy              =    -303.10386375 Ry
     Harris-Foulkes estimate   =    -303.09548814 Ry
     estimated scf accuracy    <       0.00140097 Ry

     iteration #  4     ecut=   120.00 Ry     beta=0.30
     Davidson diagonalization with overlap
     ethr =  2.92E-06,  avg # of iterations =  2.0

     total cpu time spent up to now is     2810.2 secs

     total energy              =    -303.10407135 Ry
     Harris-Foulkes estimate   =    -303.10400109 Ry
     estimated scf accuracy    <       0.00016365 Ry

     iteration #  5     ecut=   120.00 Ry     beta=0.30
     Davidson diagonalization with overlap
     ethr =  3.41E-07,  avg # of iterations =  3.0

     total cpu time spent up to now is     2977.5 secs

     total energy              =    -303.10372295 Ry
     Harris-Foulkes estimate   =    -303.10410799 Ry
     estimated scf accuracy    <       0.00003941 Ry

     iteration #  6     ecut=   120.00 Ry     beta=0.30
     Davidson diagonalization with overlap
     ethr =  8.21E-08,  avg # of iterations =  3.1

     total cpu time spent up to now is     3195.3 secs

     total energy              =    -303.10408154 Ry
     Harris-Foulkes estimate   =    -303.10375060 Ry
     estimated scf accuracy    <       0.00004472 Ry

     iteration #  7     ecut=   120.00 Ry     beta=0.30
     Davidson diagonalization with overlap
     ethr =  8.21E-08,  avg # of iterations =  2.0

     total cpu time spent up to now is     3370.3 secs

     End of self-consistent calculation

          k = 0.1268 0.1397 0.1105 ( 18078 PWs)   bands (ev):

   -32.6505 -32.5894 -32.5756 -32.5596 -13.4119 -13.2970 -13.2447 -13.0915
   -13.0029 -12.9654 -12.9575 -12.8886 -12.8673 -12.8485 -12.8337 -12.8283
     1.3096   3.7740   4.2039   4.7980   5.2053   5.4116   5.6566   6.4877

          k = 0.1269 0.1397 0.3314 ( 18096 PWs)   bands (ev):

   -32.6372 -32.6092 -32.5725 -32.5564 -13.3609 -13.2907 -13.1650 -13.1128
   -13.0502 -13.0001 -12.9390 -12.9089 -12.8891 -12.8501 -12.8461 -12.8342
     1.8187   2.7133   4.4854   4.8912   5.3615   5.3929   5.9514   6.3984

          k = 0.1268 0.4192 0.1105 ( 18089 PWs)   bands (ev):

   -32.6259 -32.5757 -32.5653 -32.5451 -13.3490 -13.2292 -13.2258 -13.1259
   -13.0901 -13.0635 -13.0376 -12.9932 -12.9777 -12.9557 -12.8591 -12.8428
     2.0961   4.1561   4.4961   4.8877   5.1931   5.2717   5.5269   6.0300

          k = 0.1269 0.4192 0.3314 ( 18122 PWs)   bands (ev):

   -32.6165 -32.5911 -32.5615 -32.5433 -13.3136 -13.2644 -13.1846 -13.1432
   -13.1166 -13.0814 -13.0422 -12.9969 -12.9543 -12.9117 -12.8856 -12.8567
     2.5303   3.2920   4.6626   4.9347   5.2326   5.2608   5.6976   5.9563

          k = 0.1268 0.6986 0.1105 ( 18108 PWs)   bands (ev):

   -32.5969 -32.5682 -32.5532 -32.5304 -13.3238 -13.3020 -13.2624 -13.2407
   -13.1629 -13.1374 -13.0960 -13.0251 -12.9870 -12.9205 -12.9090 -12.8699
     3.3878   4.6600   4.7240   4.8113   4.9855   5.0423   5.1483   5.3673

          k = 0.1269 0.6986 0.3314 ( 18096 PWs)   bands (ev):

   -32.5946 -32.5716 -32.5522 -32.5302 -13.3654 -13.3514 -13.2396 -13.2244
   -13.1807 -13.1591 -13.0585 -13.0283 -12.9389 -12.9091 -12.8942 -12.8807
     3.6755   4.1779   4.7952   4.8835   4.9622   5.0298   5.0954   5.1929

          k = 0.3805 0.1397 0.1105 ( 18069 PWs)   bands (ev):

   -32.6288 -32.6001 -32.5771 -32.5693 -13.3799 -13.3618 -13.2546 -13.0524
   -12.9643 -12.9429 -12.9265 -12.9050 -12.8909 -12.8666 -12.8546 -12.8436
     1.9545   3.0301   4.1448   4.6948   5.0845   5.4291   6.1006   6.4558

          k = 0.3805 0.1397 0.3315 ( 18069 PWs)   bands (ev):

   -32.6196 -32.6019 -32.5831 -32.5707 -13.3289 -13.2841 -13.2523 -13.1350
   -12.9896 -12.9729 -12.9205 -12.8962 -12.8855 -12.8740 -12.8625 -12.8508
     2.4088   3.1657   3.4652   4.0557   5.6597   5.9056   6.0026   6.3195

          k = 0.3805 0.4192 0.1105 ( 18074 PWs)   bands (ev):

   -32.6073 -32.5830 -32.5661 -32.5557 -13.3233 -13.3046 -13.2490 -13.1328
   -13.1016 -13.0474 -13.0040 -12.9757 -12.9406 -12.9039 -12.8887 -12.8808
     2.6428   3.5397   4.4833   4.9124   5.1241   5.4227   5.7093   5.9211

          k = 0.3805 0.4192 0.3314 ( 18089 PWs)   bands (ev):

   -32.6012 -32.5847 -32.5699 -32.5565 -13.3122 -13.2821 -13.2578 -13.1918
   -13.0527 -13.0280 -12.9939 -12.9718 -12.9671 -12.9353 -12.8826 -12.8779
     3.0254   3.6594   3.8953   4.3671   5.4811   5.6184   5.7059   5.8827

          k = 0.3805 0.6986 0.1105 ( 18120 PWs)   bands (ev):

   -32.5838 -32.5655 -32.5576 -32.5420 -13.3377 -13.3218 -13.3024 -13.2830
   -13.1460 -13.0970 -13.0747 -13.0450 -12.9409 -12.9139 -12.8966 -12.8778
     3.7445   4.2795   4.8045   4.8903   5.0212   5.1044   5.2300   5.3314

          k = 0.3805 0.6986 0.3314 ( 18101 PWs)   bands (ev):

   -32.5825 -32.5660 -32.5581 -32.5421 -13.3770 -13.3669 -13.3179 -13.3061
   -13.0893 -13.0643 -13.0389 -13.0238 -12.9424 -12.9197 -12.8988 -12.8850
     3.9777   4.3380   4.4986   4.6925   5.0402   5.0803   5.2117   5.2568

          k =-0.1268-0.1397 0.1105 ( 18078 PWs)   bands (ev):

   -32.6505 -32.5894 -32.5756 -32.5597 -13.4119 -13.2969 -13.2447 -13.0920
   -13.0023 -12.9652 -12.9577 -12.8883 -12.8672 -12.8486 -12.8336 -12.8289
     1.3098   3.7702   4.2081   4.7986   5.2086   5.4043   5.6600   6.4869

          k =-0.1268 0.1397-0.1105 ( 18078 PWs)   bands (ev):

   -32.6505 -32.5894 -32.5756 -32.5596 -13.4119 -13.2970 -13.2447 -13.0915
   -13.0029 -12.9654 -12.9575 -12.8885 -12.8673 -12.8485 -12.8338 -12.8283
     1.3096   3.7740   4.2039   4.7981   5.2053   5.4116   5.6566   6.4877

          k = 0.1268-0.1397-0.1105 ( 18078 PWs)   bands (ev):

   -32.6505 -32.5894 -32.5756 -32.5597 -13.4119 -13.2969 -13.2447 -13.0920
   -13.0023 -12.9653 -12.9576 -12.8883 -12.8672 -12.8485 -12.8335 -12.8289
     1.3098   3.7702   4.2081   4.7986   5.2086   5.4043   5.6600   6.4869

          k =-0.1268-0.1397 0.3314 ( 18096 PWs)   bands (ev):

   -32.6372 -32.6092 -32.5725 -32.5564 -13.3610 -13.2904 -13.1654 -13.1132
   -13.0498 -12.9997 -12.9391 -12.9080 -12.8898 -12.8503 -12.8462 -12.8343
     1.8195   2.7118   4.4896   4.8856   5.3697   5.3876   5.9521   6.3967

          k =-0.1269 0.1397-0.3314 ( 18096 PWs)   bands (ev):

   -32.6372 -32.6092 -32.5725 -32.5564 -13.3609 -13.2907 -13.1651 -13.1128
   -13.0502 -13.0001 -12.9390 -12.9089 -12.8892 -12.8501 -12.8461 -12.8343
     1.8188   2.7133   4.4854   4.8912   5.3615   5.3929   5.9514   6.3984

          k = 0.1268-0.1397-0.3314 ( 18096 PWs)   bands (ev):

   -32.6372 -32.6092 -32.5725 -32.5564 -13.3610 -13.2904 -13.1654 -13.1132
   -13.0498 -12.9998 -12.9391 -12.9080 -12.8897 -12.8503 -12.8462 -12.8343
     1.8195   2.7118   4.4896   4.8856   5.3697   5.3876   5.9521   6.3967

          k =-0.1268-0.4192 0.1105 ( 18089 PWs)   bands (ev):

   -32.6259 -32.5758 -32.5653 -32.5451 -13.3491 -13.2286 -13.2263 -13.1263
   -13.0897 -13.0637 -13.0375 -12.9934 -12.9774 -12.9555 -12.8589 -12.8432
     2.0962   4.1544   4.4999   4.8847   5.1961   5.2680   5.5283   6.0300

          k =-0.1268 0.4192-0.1105 ( 18089 PWs)   bands (ev):

   -32.6259 -32.5757 -32.5653 -32.5451 -13.3490 -13.2292 -13.2258 -13.1258
   -13.0901 -13.0634 -13.0376 -12.9932 -12.9777 -12.9556 -12.8592 -12.8428
     2.0961   4.1561   4.4961   4.8877   5.1931   5.2717   5.5269   6.0300

          k = 0.1268-0.4192-0.1105 ( 18089 PWs)   bands (ev):

   -32.6259 -32.5758 -32.5653 -32.5451 -13.3491 -13.2285 -13.2262 -13.1263
   -13.0898 -13.0637 -13.0375 -12.9934 -12.9774 -12.9555 -12.8588 -12.8432
     2.0962   4.1545   4.4999   4.8847   5.1961   5.2680   5.5283   6.0300

          k =-0.1268-0.4192 0.3314 ( 18122 PWs)   bands (ev):

   -32.6165 -32.5911 -32.5615 -32.5433 -13.3136 -13.2642 -13.1848 -13.1433
   -13.1168 -13.0812 -13.0421 -12.9969 -12.9546 -12.9108 -12.8856 -12.8572
     2.5306   3.2913   4.6679   4.9265   5.2378   5.2585   5.6978   5.9563

          k =-0.1269 0.4192-0.3314 ( 18122 PWs)   bands (ev):

   -32.6165 -32.5911 -32.5615 -32.5433 -13.3135 -13.2645 -13.1846 -13.1432
   -13.1166 -13.0813 -13.0421 -12.9970 -12.9542 -12.9117 -12.8856 -12.8567
     2.5303   3.2920   4.6626   4.9347   5.2326   5.2608   5.6976   5.9564

          k = 0.1268-0.4192-0.3314 ( 18122 PWs)   bands (ev):

   -32.6165 -32.5911 -32.5615 -32.5433 -13.3137 -13.2641 -13.1847 -13.1433
   -13.1167 -13.0813 -13.0422 -12.9969 -12.9546 -12.9108 -12.8855 -12.8572
     2.5305   3.2914   4.6679   4.9265   5.2378   5.2585   5.6978   5.9563

          k =-0.1268-0.6986 0.1105 ( 18108 PWs)   bands (ev):

   -32.5969 -32.5682 -32.5532 -32.5304 -13.3239 -13.3016 -13.2634 -13.2403
   -13.1627 -13.1369 -13.0966 -13.0252 -12.9872 -12.9202 -12.9091 -12.8699
     3.3877   4.6615   4.7239   4.8123   4.9894   5.0353   5.1486   5.3675

          k =-0.1268 0.6986-0.1105 ( 18108 PWs)   bands (ev):

   -32.5969 -32.5682 -32.5532 -32.5304 -13.3238 -13.3020 -13.2624 -13.2407
   -13.1630 -13.1375 -13.0959 -13.0252 -12.9869 -12.9205 -12.9090 -12.8699
     3.3878   4.6600   4.7240   4.8113   4.9855   5.0423   5.1483   5.3673

          k = 0.1268-0.6986-0.1105 ( 18108 PWs)   bands (ev):

   -32.5969 -32.5682 -32.5532 -32.5304 -13.3239 -13.3016 -13.2633 -13.2403
   -13.1627 -13.1369 -13.0966 -13.0251 -12.9872 -12.9202 -12.9091 -12.8699
     3.3877   4.6615   4.7239   4.8123   4.9894   5.0353   5.1486   5.3675

          k =-0.1268-0.6986 0.3314 ( 18096 PWs)   bands (ev):

   -32.5946 -32.5716 -32.5522 -32.5302 -13.3654 -13.3513 -13.2399 -13.2245
   -13.1804 -13.1589 -13.0588 -13.0283 -12.9395 -12.9081 -12.8944 -12.8809
     3.6751   4.1789   4.7976   4.8837   4.9579   5.0306   5.0962   5.1922

          k =-0.1269 0.6986-0.3314 ( 18096 PWs)   bands (ev):

   -32.5946 -32.5716 -32.5522 -32.5302 -13.3654 -13.3513 -13.2397 -13.2244
   -13.1807 -13.1590 -13.0584 -13.0284 -12.9388 -12.9091 -12.8943 -12.8807
     3.6756   4.1778   4.7952   4.8835   4.9622   5.0298   5.0954   5.1929

          k = 0.1268-0.6986-0.3314 ( 18096 PWs)   bands (ev):

   -32.5946 -32.5716 -32.5522 -32.5302 -13.3654 -13.3513 -13.2399 -13.2245
   -13.1804 -13.1589 -13.0588 -13.0282 -12.9396 -12.9081 -12.8944 -12.8809
     3.6750   4.1789   4.7976   4.8837   4.9579   5.0306   5.0962   5.1922

          k =-0.3804-0.1397 0.1104 ( 18069 PWs)   bands (ev):

   -32.6288 -32.6002 -32.5770 -32.5693 -13.3799 -13.3619 -13.2546 -13.0522
   -12.9648 -12.9429 -12.9260 -12.9047 -12.8912 -12.8668 -12.8546 -12.8437
     1.9550   3.0296   4.1389   4.7080   5.0773   5.4300   6.0991   6.4559

          k =-0.3805 0.1397-0.1105 ( 18069 PWs)   bands (ev):

   -32.6288 -32.6001 -32.5771 -32.5693 -13.3799 -13.3618 -13.2546 -13.0524
   -12.9643 -12.9429 -12.9265 -12.9050 -12.8909 -12.8666 -12.8546 -12.8437
     1.9545   3.0301   4.1448   4.6948   5.0845   5.4291   6.1006   6.4558

          k = 0.3804-0.1397-0.1104 ( 18069 PWs)   bands (ev):

   -32.6288 -32.6002 -32.5770 -32.5693 -13.3799 -13.3619 -13.2546 -13.0522
   -12.9648 -12.9428 -12.9261 -12.9047 -12.8912 -12.8668 -12.8546 -12.8436
     1.9550   3.0296   4.1389   4.7080   5.0773   5.4300   6.0991   6.4559

          k =-0.3804-0.1397 0.3314 ( 18069 PWs)   bands (ev):

   -32.6196 -32.6020 -32.5830 -32.5708 -13.3288 -13.2842 -13.2527 -13.1345
   -12.9905 -12.9722 -12.9204 -12.8958 -12.8857 -12.8743 -12.8623 -12.8509
     2.4106   3.1597   3.4684   4.0567   5.6668   5.8932   6.0085   6.3185

          k =-0.3805 0.1397-0.3315 ( 18069 PWs)   bands (ev):

   -32.6196 -32.6019 -32.5831 -32.5707 -13.3289 -13.2841 -13.2523 -13.1350
   -12.9896 -12.9729 -12.9205 -12.8961 -12.8854 -12.8740 -12.8625 -12.8508
     2.4088   3.1657   3.4652   4.0557   5.6598   5.9056   6.0026   6.3195

          k = 0.3804-0.1397-0.3314 ( 18069 PWs)   bands (ev):

   -32.6196 -32.6020 -32.5830 -32.5708 -13.3288 -13.2842 -13.2527 -13.1345
   -12.9905 -12.9722 -12.9204 -12.8958 -12.8857 -12.8743 -12.8623 -12.8509
     2.4105   3.1597   3.4684   4.0567   5.6668   5.8932   6.0085   6.3185

          k =-0.3804-0.4192 0.1104 ( 18074 PWs)   bands (ev):

   -32.6073 -32.5831 -32.5660 -32.5557 -13.3232 -13.3047 -13.2490 -13.1327
   -13.1015 -13.0473 -13.0036 -12.9761 -12.9409 -12.9033 -12.8888 -12.8811
     2.6429   3.5398   4.4833   4.9082   5.1292   5.4221   5.7082   5.9214

          k =-0.3805 0.4192-0.1105 ( 18074 PWs)   bands (ev):

   -32.6073 -32.5830 -32.5661 -32.5557 -13.3233 -13.3046 -13.2489 -13.1328
   -13.1015 -13.0474 -13.0040 -12.9757 -12.9406 -12.9039 -12.8887 -12.8808
     2.6428   3.5397   4.4833   4.9124   5.1241   5.4227   5.7093   5.9211

          k = 0.3804-0.4192-0.1104 ( 18074 PWs)   bands (ev):

   -32.6073 -32.5831 -32.5660 -32.5557 -13.3232 -13.3046 -13.2490 -13.1328
   -13.1015 -13.0474 -13.0037 -12.9761 -12.9408 -12.9033 -12.8888 -12.8811
     2.6429   3.5398   4.4833   4.9083   5.1291   5.4221   5.7082   5.9214

          k =-0.3804-0.4192 0.3314 ( 18089 PWs)   bands (ev):

   -32.6012 -32.5847 -32.5698 -32.5565 -13.3121 -13.2819 -13.2583 -13.1915
   -13.0528 -13.0274 -12.9940 -12.9725 -12.9671 -12.9349 -12.8823 -12.8783
     3.0259   3.6564   3.8996   4.3643   5.4880   5.6085   5.7099   5.8826

          k =-0.3805 0.4192-0.3315 ( 18089 PWs)   bands (ev):

   -32.6012 -32.5847 -32.5699 -32.5565 -13.3122 -13.2821 -13.2579 -13.1917
   -13.0527 -13.0280 -12.9939 -12.9719 -12.9671 -12.9354 -12.8826 -12.8779
     3.0254   3.6594   3.8953   4.3671   5.4812   5.6184   5.7059   5.8827

          k = 0.3804-0.4192-0.3314 ( 18089 PWs)   bands (ev):

   -32.6012 -32.5847 -32.5698 -32.5565 -13.3121 -13.2819 -13.2583 -13.1916
   -13.0528 -13.0275 -12.9941 -12.9725 -12.9670 -12.9349 -12.8823 -12.8783
     3.0259   3.6564   3.8996   4.3644   5.4879   5.6085   5.7099   5.8826

          k =-0.3804-0.6986 0.1104 ( 18120 PWs)   bands (ev):

   -32.5838 -32.5655 -32.5576 -32.5420 -13.3377 -13.3214 -13.3029 -13.2830
   -13.1455 -13.0973 -13.0743 -13.0454 -12.9411 -12.9140 -12.8964 -12.8778
     3.7439   4.2807   4.8058   4.8932   5.0166   5.1029   5.2292   5.3333

          k =-0.3805 0.6986-0.1105 ( 18120 PWs)   bands (ev):

   -32.5838 -32.5655 -32.5576 -32.5420 -13.3377 -13.3217 -13.3024 -13.2830
   -13.1460 -13.0969 -13.0747 -13.0451 -12.9409 -12.9139 -12.8966 -12.8778
     3.7445   4.2795   4.8045   4.8903   5.0212   5.1044   5.2301   5.3314

          k = 0.3804-0.6986-0.1104 ( 18120 PWs)   bands (ev):

   -32.5838 -32.5655 -32.5576 -32.5420 -13.3377 -13.3214 -13.3028 -13.2830
   -13.1455 -13.0974 -13.0744 -13.0454 -12.9411 -12.9140 -12.8963 -12.8778
     3.7439   4.2807   4.8058   4.8932   5.0166   5.1029   5.2291   5.3333

          k =-0.3804-0.6986 0.3314 ( 18101 PWs)   bands (ev):

   -32.5825 -32.5660 -32.5581 -32.5421 -13.3771 -13.3668 -13.3181 -13.3060
   -13.0887 -13.0644 -13.0393 -13.0236 -12.9429 -12.9193 -12.8989 -12.8848
     3.9759   4.3401   4.5047   4.6859   5.0372   5.0836   5.2103   5.2578

          k =-0.3805 0.6986-0.3315 ( 18101 PWs)   bands (ev):

   -32.5825 -32.5660 -32.5581 -32.5421 -13.3771 -13.3669 -13.3180 -13.3061
   -13.0893 -13.0643 -13.0388 -13.0238 -12.9424 -12.9198 -12.8988 -12.8850
     3.9777   4.3379   4.4986   4.6925   5.0402   5.0803   5.2117   5.2569

          k = 0.3804-0.6986-0.3314 ( 18101 PWs)   bands (ev):

   -32.5825 -32.5660 -32.5581 -32.5421 -13.3770 -13.3669 -13.3180 -13.3061
   -13.0887 -13.0645 -13.0394 -13.0236 -12.9429 -12.9192 -12.8989 -12.8848
     3.9759   4.3401   4.5047   4.6859   5.0372   5.0836   5.2103   5.2578

!    total energy              =    -303.10408837 Ry
     Harris-Foulkes estimate   =    -303.10408736 Ry
     estimated scf accuracy    <       0.00000100 Ry

     The total energy is the sum of the following terms:

     one-electron contribution =     -96.86010720 Ry
     hartree contribution      =      60.83169415 Ry
     xc contribution           =     -47.50293197 Ry
     ewald contribution        =    -219.57274335 Ry

     convergence has been achieved in   7 iterations

     Forces acting on atoms (Ry/au):

     atom    1 type  2   force =     0.00244125   -0.00138857    0.00661118
     atom    2 type  2   force =    -0.00280107    0.00002687    0.00575807
     atom    3 type  2   force =     0.00332699   -0.00002892   -0.00717956
     atom    4 type  2   force =    -0.00307950    0.00138411   -0.00685254
     atom    5 type  1   force =    -0.00169829    0.00001424    0.00075429
     atom    6 type  1   force =     0.00160437   -0.00001321    0.00022256
     atom    7 type  1   force =    -0.00162197    0.00001460   -0.00054633
     atom    8 type  1   force =     0.00138041   -0.00001270    0.00361839
     atom    9 type  1   force =    -0.00076749    0.00001809    0.00471428
     atom   10 type  1   force =     0.00067390   -0.00001709    0.00473529
     atom   11 type  1   force =    -0.00028854    0.00001911   -0.00711374
     atom   12 type  1   force =     0.00082995   -0.00001653   -0.00472189

     Total force =     0.018791     Total SCF correction =     0.000362


     entering subroutine stress ...

          total   stress  (Ry/bohr**3)                   (kbar)     P=  161.16
   0.00104892   0.00000000  -0.00000360        154.30      0.00     -0.53
   0.00000000   0.00110566   0.00000002          0.00    162.65      0.00
  -0.00000360   0.00000002   0.00113210         -0.53      0.00    166.54


     number of scf cycles    =   2
     number of bfgs steps    =   1

     enthalpy old            =    -302.0263220923 Ry
     enthalpy new            =    -302.0396989717 Ry

     CASE: enthalpy_new < enthalpy_old

     new trust radius        =       0.0873337729 bohr
     new conv_thr            =       0.0000000718 Ry

     new unit-cell volume =    752.11952 a.u.^3 (   111.45261 Ang^3 )

CELL_PARAMETERS (alat= 10.55800000)
   0.970285568   0.000000082  -0.000278933
   0.000000049   0.588817697   0.000001489
  -0.000319787   0.000002826   1.118565698

ATOMIC_POSITIONS (crystal)
Ca       0.240638395   0.250000003   0.111512176    1   0   1
Ca       0.259262400  -0.249999997   0.611232447    1   0   1
Ca       0.740901691   0.249999997   0.388350709    1   0   1
Ca      -0.240830541  -0.250000003  -0.111545988    1   0   1
H        0.355250679   0.250000000   0.426661710    1   0   1
H        0.144709913  -0.250000000   0.926523589    1   0   1
H        0.855283892   0.250000000   0.073401156    1   0   1
H       -0.355357466  -0.249999998  -0.428539857    1   0   1
H        0.975189802   0.250000002   0.677558982    1   0   1
H       -0.475220351  -0.249999998   1.177556549    1   0   1
H        1.475340474   0.249999997  -0.175158152    1   0   1
H       -0.975168889  -0.250000002  -0.677553321    1   0   1



     Writing output data file CaH2_ambient.save
     NEW-OLD atomic charge density approx. for the potential
     NEW k-points:
        k(    1) = (   0.1288602   0.1415262   0.1117867), wk =   0.0416667
        k(    2) = (   0.1289244   0.1415257   0.3352873), wk =   0.0416667
        k(    3) = (   0.1288602   0.4245793   0.1117860), wk =   0.0416667
        k(    4) = (   0.1289244   0.4245788   0.3352865), wk =   0.0416667
        k(    5) = (   0.1288601   0.7076324   0.1117853), wk =   0.0416667
        k(    6) = (   0.1289244   0.7076319   0.3352858), wk =   0.0416667
        k(    7) = (   0.3865163   0.1415262   0.1118604), wk =   0.0416667
        k(    8) = (   0.3865806   0.1415257   0.3353609), wk =   0.0416667
        k(    9) = (   0.3865163   0.4245793   0.1118597), wk =   0.0416667
        k(   10) = (   0.3865805   0.4245787   0.3353602), wk =   0.0416667
        k(   11) = (   0.3865163   0.7076324   0.1118590), wk =   0.0416667
        k(   12) = (   0.3865805   0.7076318   0.3353595), wk =   0.0416667
        k(   13) = (  -0.1287959  -0.1415268   0.1117138), wk =   0.0416667
        k(   14) = (  -0.1288602   0.1415268  -0.1117875), wk =   0.0416667
        k(   15) = (   0.1287959  -0.1415263  -0.1117131), wk =   0.0416667
        k(   16) = (  -0.1287317  -0.1415274   0.3352143), wk =   0.0416667
        k(   17) = (  -0.1289245   0.1415274  -0.3352880), wk =   0.0416667
        k(   18) = (   0.1287317  -0.1415257  -0.3352136), wk =   0.0416667
        k(   19) = (  -0.1287959  -0.4245799   0.1117145), wk =   0.0416667
        k(   20) = (  -0.1288602   0.4245799  -0.1117882), wk =   0.0416667
        k(   21) = (   0.1287960  -0.4245794  -0.1117124), wk =   0.0416667
        k(   22) = (  -0.1287317  -0.4245805   0.3352150), wk =   0.0416667
        k(   23) = (  -0.1289245   0.4245805  -0.3352887), wk =   0.0416667
        k(   24) = (   0.1287317  -0.4245788  -0.3352129), wk =   0.0416667
        k(   25) = (  -0.1287959  -0.7076330   0.1117152), wk =   0.0416667
        k(   26) = (  -0.1288602   0.7076330  -0.1117889), wk =   0.0416667
        k(   27) = (   0.1287960  -0.7076324  -0.1117116), wk =   0.0416667
        k(   28) = (  -0.1287316  -0.7076336   0.3352157), wk =   0.0416667
        k(   29) = (  -0.1289245   0.7076336  -0.3352894), wk =   0.0416667
        k(   30) = (   0.1287317  -0.7076319  -0.3352122), wk =   0.0416667
        k(   31) = (  -0.3864521  -0.1415268   0.1116401), wk =   0.0416667
        k(   32) = (  -0.3865163   0.1415269  -0.1118611), wk =   0.0416667
        k(   33) = (   0.3864521  -0.1415263  -0.1116394), wk =   0.0416667
        k(   34) = (  -0.3863878  -0.1415274   0.3351407), wk =   0.0416667
        k(   35) = (  -0.3865806   0.1415274  -0.3353616), wk =   0.0416667
        k(   36) = (   0.3863878  -0.1415257  -0.3351399), wk =   0.0416667
        k(   37) = (  -0.3864520  -0.4245799   0.1116408), wk =   0.0416667
        k(   38) = (  -0.3865164   0.4245799  -0.1118618), wk =   0.0416667
        k(   39) = (   0.3864521  -0.4245794  -0.1116387), wk =   0.0416667
        k(   40) = (  -0.3863878  -0.4245804   0.3351414), wk =   0.0416667
        k(   41) = (  -0.3865806   0.4245805  -0.3353624), wk =   0.0416667
        k(   42) = (   0.3863878  -0.4245788  -0.3351392), wk =   0.0416667
        k(   43) = (  -0.3864520  -0.7076330   0.1116416), wk =   0.0416667
        k(   44) = (  -0.3865164   0.7076330  -0.1118625), wk =   0.0416667
        k(   45) = (   0.3864521  -0.7076325  -0.1116380), wk =   0.0416667
        k(   46) = (  -0.3863878  -0.7076335   0.3351421), wk =   0.0416667
        k(   47) = (  -0.3865806   0.7076336  -0.3353631), wk =   0.0416667
        k(   48) = (   0.3863879  -0.7076319  -0.3351385), wk =   0.0416667
     extrapolated charge   46.03742, renormalised to   48.00000

     total cpu time spent up to now is     3662.5 secs

     per-process dynamical memory:   102.5 Mb

     Self-consistent Calculation

     iteration #  1     ecut=   120.00 Ry     beta=0.30
     Davidson diagonalization with overlap
     ethr =  1.00E-06,  avg # of iterations =  7.0

     total cpu time spent up to now is     4067.5 secs

     total energy              =    -302.96591034 Ry
     Harris-Foulkes estimate   =    -305.37239563 Ry
     estimated scf accuracy    <       0.07918361 Ry

     iteration #  2     ecut=   120.00 Ry     beta=0.30
     Davidson diagonalization with overlap
     ethr =  1.65E-04,  avg # of iterations =  3.0

     total cpu time spent up to now is     4284.1 secs

     total energy              =    -303.05870765 Ry
     Harris-Foulkes estimate   =    -303.05300414 Ry
     estimated scf accuracy    <       0.00225384 Ry

     iteration #  3     ecut=   120.00 Ry     beta=0.30
     Davidson diagonalization with overlap
     ethr =  4.70E-06,  avg # of iterations =  1.8

     total cpu time spent up to now is     4423.3 secs

     total energy              =    -303.06689525 Ry
     Harris-Foulkes estimate   =    -303.05884464 Ry
     estimated scf accuracy    <       0.00147953 Ry

     iteration #  4     ecut=   120.00 Ry     beta=0.30
     Davidson diagonalization with overlap
     ethr =  3.08E-06,  avg # of iterations =  2.0

     total cpu time spent up to now is     4592.7 secs

     total energy              =    -303.06705434 Ry
     Harris-Foulkes estimate   =    -303.06705432 Ry
     estimated scf accuracy    <       0.00013508 Ry

     iteration #  5     ecut=   120.00 Ry     beta=0.30
     Davidson diagonalization with overlap
     ethr =  2.81E-07,  avg # of iterations =  3.0

     total cpu time spent up to now is     4761.8 secs

     total energy              =    -303.06689662 Ry
     Harris-Foulkes estimate   =    -303.06708846 Ry
     estimated scf accuracy    <       0.00003484 Ry

     iteration #  6     ecut=   120.00 Ry     beta=0.30
     Davidson diagonalization with overlap
     ethr =  7.26E-08,  avg # of iterations =  3.1

     total cpu time spent up to now is     4972.9 secs

     total energy              =    -303.06706697 Ry
     Harris-Foulkes estimate   =    -303.06691190 Ry
     estimated scf accuracy    <       0.00001875 Ry

     iteration #  7     ecut=   120.00 Ry     beta=0.30
     Davidson diagonalization with overlap
     ethr =  3.91E-08,  avg # of iterations =  2.0

     total cpu time spent up to now is     5143.8 secs

     total energy              =    -303.06706912 Ry
     Harris-Foulkes estimate   =    -303.06706923 Ry
     estimated scf accuracy    <       0.00000041 Ry

     iteration #  8     ecut=   120.00 Ry     beta=0.30
     Davidson diagonalization with overlap
     ethr =  8.60E-10,  avg # of iterations =  4.0

     total cpu time spent up to now is     5369.3 secs

     End of self-consistent calculation

          k = 0.1289 0.1415 0.1118 ( 18078 PWs)   bands (ev):

   -32.1336 -32.0602 -32.0444 -32.0311 -12.9518 -12.8199 -12.7627 -12.5838
   -12.4809 -12.4425 -12.4308 -12.3528 -12.3260 -12.3101 -12.2922 -12.2839
     1.6170   4.1576   4.5793   5.1817   5.6035   5.8028   6.0354   6.8979

          k = 0.1289 0.1415 0.3353 ( 18096 PWs)   bands (ev):

   -32.1168 -32.0866 -32.0391 -32.0270 -12.8933 -12.8147 -12.6701 -12.6087
   -12.5395 -12.4808 -12.4093 -12.3749 -12.3524 -12.3080 -12.3049 -12.2933
     2.1478   3.0722   4.8802   5.3010   5.7420   5.7859   6.3199   6.7844

          k = 0.1289 0.4246 0.1118 ( 18089 PWs)   bands (ev):

   -32.1042 -32.0469 -32.0299 -32.0144 -12.8797 -12.7435 -12.7394 -12.6220
   -12.5832 -12.5542 -12.5196 -12.4710 -12.4552 -12.4280 -12.3200 -12.2992
     2.4361   4.5456   4.8776   5.2691   5.5626   5.6210   5.9224   6.4148

          k = 0.1289 0.4246 0.3353 ( 18122 PWs)   bands (ev):

   -32.0917 -32.0665 -32.0255 -32.0121 -12.8389 -12.7843 -12.6914 -12.6436
   -12.6136 -12.5706 -12.5285 -12.4764 -12.4277 -12.3762 -12.3499 -12.3158
     2.8843   3.6662   5.0475   5.3182   5.5929   5.6255   6.0758   6.3303

          k = 0.1289 0.7076 0.1118 ( 18108 PWs)   bands (ev):

   -32.0682 -32.0419 -32.0135 -31.9974 -12.8475 -12.8244 -12.7772 -12.7527
   -12.6652 -12.6384 -12.5900 -12.5101 -12.4645 -12.3841 -12.3773 -12.3300
     3.7666   5.0405   5.1063   5.1755   5.3330   5.4026   5.5066   5.7279

          k = 0.1289 0.7076 0.3353 ( 18096 PWs)   bands (ev):

   -32.0644 -32.0467 -32.0128 -31.9972 -12.8951 -12.8817 -12.7469 -12.7337
   -12.6852 -12.6662 -12.5463 -12.5144 -12.4091 -12.3713 -12.3597 -12.3436
     4.0531   4.5566   5.1368   5.2274   5.3289   5.4173   5.4456   5.5563

          k = 0.3865 0.1415 0.1119 ( 18069 PWs)   bands (ev):

   -32.1070 -32.0705 -32.0506 -32.0416 -12.9166 -12.8963 -12.7730 -12.5397
   -12.4368 -12.4125 -12.3954 -12.3713 -12.3527 -12.3291 -12.3171 -12.3037
     2.2923   3.4039   4.5153   5.0454   5.5079   5.8296   6.4891   6.8506

          k = 0.3866 0.1415 0.3354 ( 18069 PWs)   bands (ev):

   -32.0948 -32.0742 -32.0567 -32.0440 -12.8587 -12.8065 -12.7726 -12.6373
   -12.4648 -12.4473 -12.3874 -12.3589 -12.3478 -12.3353 -12.3266 -12.3124
     2.7631   3.5410   3.8456   4.4489   6.0374   6.2943   6.3729   6.7041

          k = 0.3865 0.4246 0.1119 ( 18074 PWs)   bands (ev):

   -32.0812 -32.0500 -32.0378 -32.0264 -12.8515 -12.8295 -12.7662 -12.6308
   -12.5959 -12.5306 -12.4856 -12.4526 -12.4104 -12.3657 -12.3539 -12.3453
     3.0027   3.9217   4.8642   5.2858   5.5050   5.8163   6.0791   6.2983

          k = 0.3866 0.4246 0.3354 ( 18089 PWs)   bands (ev):

   -32.0726 -32.0543 -32.0408 -32.0279 -12.8383 -12.8038 -12.7762 -12.6999
   -12.5393 -12.5095 -12.4744 -12.4477 -12.4405 -12.4047 -12.3442 -12.3409
     3.3955   4.0459   4.2731   4.7540   5.8482   5.9970   6.0680   6.2522

          k = 0.3865 0.7076 0.1119 ( 18120 PWs)   bands (ev):

   -32.0516 -32.0303 -32.0279 -32.0115 -12.8636 -12.8461 -12.8212 -12.8017
   -12.6485 -12.5913 -12.5664 -12.5330 -12.4087 -12.3838 -12.3553 -12.3416
     4.1236   4.6508   5.1582   5.2283   5.4216   5.5116   5.5935   5.6980

          k = 0.3866 0.7076 0.3354 ( 18101 PWs)   bands (ev):

   -32.0494 -32.0333 -32.0267 -32.0117 -12.9089 -12.8982 -12.8392 -12.8273
   -12.5828 -12.5543 -12.5253 -12.5085 -12.4108 -12.3864 -12.3619 -12.3489
     4.3505   4.7078   4.8419   5.0273   5.4453   5.4814   5.5769   5.6232

          k =-0.1288-0.1415 0.1117 ( 18078 PWs)   bands (ev):

   -32.1336 -32.0604 -32.0441 -32.0313 -12.9519 -12.8197 -12.7627 -12.5841
   -12.4804 -12.4425 -12.4310 -12.3527 -12.3262 -12.3101 -12.2922 -12.2838
     1.6171   4.1545   4.5831   5.1842   5.6035   5.7964   6.0386   6.8974

          k =-0.1289 0.1415-0.1118 ( 18078 PWs)   bands (ev):

   -32.1336 -32.0602 -32.0444 -32.0311 -12.9518 -12.8199 -12.7627 -12.5838
   -12.4809 -12.4425 -12.4309 -12.3528 -12.3260 -12.3101 -12.2921 -12.2839
     1.6170   4.1576   4.5793   5.1817   5.6035   5.8028   6.0354   6.8979

          k = 0.1288-0.1415-0.1117 ( 18078 PWs)   bands (ev):

   -32.1336 -32.0604 -32.0441 -32.0313 -12.9519 -12.8197 -12.7627 -12.5841
   -12.4804 -12.4424 -12.4310 -12.3527 -12.3262 -12.3101 -12.2923 -12.2837
     1.6171   4.1545   4.5831   5.1842   5.6035   5.7964   6.0386   6.8974

          k =-0.1287-0.1415 0.3352 ( 18096 PWs)   bands (ev):

   -32.1168 -32.0867 -32.0390 -32.0272 -12.8937 -12.8139 -12.6704 -12.6093
   -12.5390 -12.4805 -12.4096 -12.3738 -12.3539 -12.3077 -12.3045 -12.2936
     2.1481   3.0713   4.8854   5.2941   5.7524   5.7784   6.3197   6.7834

          k =-0.1289 0.1415-0.3353 ( 18096 PWs)   bands (ev):

   -32.1168 -32.0866 -32.0391 -32.0270 -12.8933 -12.8147 -12.6701 -12.6087
   -12.5395 -12.4808 -12.4093 -12.3749 -12.3525 -12.3081 -12.3049 -12.2933
     2.1478   3.0722   4.8802   5.3010   5.7420   5.7859   6.3198   6.7844

          k = 0.1287-0.1415-0.3352 ( 18096 PWs)   bands (ev):

   -32.1168 -32.0867 -32.0390 -32.0272 -12.8937 -12.8139 -12.6704 -12.6093
   -12.5390 -12.4805 -12.4096 -12.3739 -12.3538 -12.3076 -12.3046 -12.2936
     2.1481   3.0713   4.8854   5.2941   5.7524   5.7784   6.3197   6.7834

          k =-0.1288-0.4246 0.1117 ( 18089 PWs)   bands (ev):

   -32.1042 -32.0470 -32.0298 -32.0145 -12.8798 -12.7429 -12.7397 -12.6227
   -12.5823 -12.5551 -12.5191 -12.4711 -12.4545 -12.4287 -12.3201 -12.2991
     2.4360   4.5446   4.8811   5.2674   5.5642   5.6170   5.9233   6.4151

          k =-0.1289 0.4246-0.1118 ( 18089 PWs)   bands (ev):

   -32.1042 -32.0469 -32.0299 -32.0144 -12.8797 -12.7435 -12.7394 -12.6220
   -12.5833 -12.5541 -12.5196 -12.4711 -12.4552 -12.4281 -12.3200 -12.2992
     2.4361   4.5456   4.8776   5.2691   5.5626   5.6210   5.9224   6.4148

          k = 0.1288-0.4246-0.1117 ( 18089 PWs)   bands (ev):

   -32.1042 -32.0470 -32.0298 -32.0145 -12.8798 -12.7429 -12.7397 -12.6227
   -12.5822 -12.5552 -12.5191 -12.4711 -12.4545 -12.4287 -12.3201 -12.2991
     2.4360   4.5446   4.8811   5.2674   5.5642   5.6170   5.9233   6.4151

          k =-0.1287-0.4246 0.3352 ( 18122 PWs)   bands (ev):

   -32.0917 -32.0665 -32.0254 -32.0121 -12.8392 -12.7838 -12.6916 -12.6438
   -12.6136 -12.5704 -12.5285 -12.4764 -12.4276 -12.3758 -12.3506 -12.3155
     2.8842   3.6661   5.0540   5.3090   5.5988   5.6220   6.0756   6.3308

          k =-0.1289 0.4246-0.3353 ( 18122 PWs)   bands (ev):

   -32.0917 -32.0665 -32.0255 -32.0121 -12.8388 -12.7844 -12.6914 -12.6436
   -12.6136 -12.5707 -12.5285 -12.4764 -12.4277 -12.3763 -12.3498 -12.3158
     2.8843   3.6662   5.0475   5.3182   5.5929   5.6255   6.0758   6.3303

          k = 0.1287-0.4246-0.3352 ( 18122 PWs)   bands (ev):

   -32.0917 -32.0665 -32.0254 -32.0121 -12.8393 -12.7837 -12.6916 -12.6437
   -12.6137 -12.5704 -12.5285 -12.4765 -12.4276 -12.3758 -12.3507 -12.3155
     2.8841   3.6662   5.0540   5.3090   5.5988   5.6220   6.0756   6.3308

          k =-0.1288-0.7076 0.1117 ( 18108 PWs)   bands (ev):

   -32.0682 -32.0419 -32.0135 -31.9974 -12.8477 -12.8238 -12.7785 -12.7520
   -12.6652 -12.6375 -12.5907 -12.5103 -12.4644 -12.3842 -12.3773 -12.3300
     3.7663   5.0431   5.1060   5.1765   5.3332   5.3995   5.5059   5.7282

          k =-0.1289 0.7076-0.1118 ( 18108 PWs)   bands (ev):

   -32.0682 -32.0419 -32.0135 -31.9974 -12.8474 -12.8244 -12.7773 -12.7527
   -12.6652 -12.6383 -12.5900 -12.5101 -12.4645 -12.3841 -12.3773 -12.3300
     3.7667   5.0404   5.1063   5.1755   5.3330   5.4027   5.5065   5.7279

          k = 0.1288-0.7076-0.1117 ( 18108 PWs)   bands (ev):

   -32.0682 -32.0419 -32.0135 -31.9974 -12.8478 -12.8236 -12.7784 -12.7521
   -12.6652 -12.6375 -12.5907 -12.5103 -12.4644 -12.3842 -12.3773 -12.3300
     3.7663   5.0431   5.1060   5.1765   5.3332   5.3994   5.5059   5.7282

          k =-0.1287-0.7076 0.3352 ( 18096 PWs)   bands (ev):

   -32.0644 -32.0467 -32.0127 -31.9972 -12.8951 -12.8817 -12.7472 -12.7336
   -12.6853 -12.6655 -12.5467 -12.5142 -12.4092 -12.3709 -12.3599 -12.3436
     4.0521   4.5583   5.1394   5.2249   5.3287   5.4183   5.4435   5.5563

          k =-0.1289 0.7076-0.3353 ( 18096 PWs)   bands (ev):

   -32.0644 -32.0467 -32.0128 -31.9972 -12.8950 -12.8818 -12.7469 -12.7337
   -12.6853 -12.6661 -12.5463 -12.5144 -12.4091 -12.3713 -12.3597 -12.3436
     4.0531   4.5566   5.1368   5.2274   5.3288   5.4173   5.4456   5.5563

          k = 0.1287-0.7076-0.3352 ( 18096 PWs)   bands (ev):

   -32.0644 -32.0467 -32.0127 -31.9972 -12.8952 -12.8817 -12.7471 -12.7337
   -12.6853 -12.6655 -12.5467 -12.5142 -12.4092 -12.3709 -12.3600 -12.3436
     4.0521   4.5584   5.1393   5.2249   5.3287   5.4183   5.4436   5.5562

          k =-0.3865-0.1415 0.1116 ( 18069 PWs)   bands (ev):

   -32.1069 -32.0708 -32.0497 -32.0422 -12.9166 -12.8962 -12.7733 -12.5394
   -12.4368 -12.4127 -12.3950 -12.3716 -12.3531 -12.3289 -12.3168 -12.3040
     2.2924   3.4041   4.5099   5.0586   5.4976   5.8330   6.4871   6.8509

          k =-0.3865 0.1415-0.1119 ( 18069 PWs)   bands (ev):

   -32.1070 -32.0705 -32.0506 -32.0416 -12.9166 -12.8963 -12.7730 -12.5397
   -12.4368 -12.4125 -12.3953 -12.3714 -12.3527 -12.3291 -12.3171 -12.3037
     2.2923   3.4039   4.5153   5.0454   5.5079   5.8296   6.4891   6.8506

          k = 0.3865-0.1415-0.1116 ( 18069 PWs)   bands (ev):

   -32.1069 -32.0708 -32.0497 -32.0422 -12.9166 -12.8962 -12.7733 -12.5394
   -12.4367 -12.4127 -12.3949 -12.3716 -12.3531 -12.3288 -12.3168 -12.3040
     2.2924   3.4041   4.5099   5.0586   5.4976   5.8330   6.4871   6.8509

          k =-0.3864-0.1415 0.3351 ( 18069 PWs)   bands (ev):

   -32.0947 -32.0747 -32.0557 -32.0446 -12.8585 -12.8059 -12.7739 -12.6365
   -12.4657 -12.4463 -12.3875 -12.3586 -12.3491 -12.3350 -12.3255 -12.3130
     2.7637   3.5373   3.8492   4.4486   6.0434   6.2846   6.3762   6.7039

          k =-0.3866 0.1415-0.3354 ( 18069 PWs)   bands (ev):

   -32.0948 -32.0742 -32.0567 -32.0440 -12.8587 -12.8065 -12.7726 -12.6373
   -12.4648 -12.4473 -12.3874 -12.3589 -12.3479 -12.3353 -12.3266 -12.3124
     2.7631   3.5410   3.8456   4.4489   6.0374   6.2944   6.3729   6.7041

          k = 0.3864-0.1415-0.3351 ( 18069 PWs)   bands (ev):

   -32.0947 -32.0747 -32.0557 -32.0446 -12.8585 -12.8059 -12.7739 -12.6365
   -12.4657 -12.4463 -12.3875 -12.3586 -12.3491 -12.3349 -12.3256 -12.3130
     2.7637   3.5373   3.8492   4.4486   6.0434   6.2846   6.3762   6.7039

          k =-0.3865-0.4246 0.1116 ( 18074 PWs)   bands (ev):

   -32.0812 -32.0504 -32.0371 -32.0268 -12.8514 -12.8294 -12.7665 -12.6308
   -12.5960 -12.5305 -12.4847 -12.4536 -12.4101 -12.3655 -12.3544 -12.3451
     3.0024   3.9225   4.8645   5.2841   5.5054   5.8174   6.0775   6.2990

          k =-0.3865 0.4246-0.1119 ( 18074 PWs)   bands (ev):

   -32.0812 -32.0500 -32.0378 -32.0264 -12.8514 -12.8295 -12.7662 -12.6309
   -12.5959 -12.5306 -12.4857 -12.4526 -12.4104 -12.3657 -12.3539 -12.3453
     3.0027   3.9217   4.8642   5.2858   5.5050   5.8163   6.0791   6.2983

          k = 0.3865-0.4246-0.1116 ( 18074 PWs)   bands (ev):

   -32.0812 -32.0504 -32.0371 -32.0268 -12.8514 -12.8294 -12.7664 -12.6308
   -12.5960 -12.5305 -12.4847 -12.4536 -12.4101 -12.3656 -12.3544 -12.3451
     3.0023   3.9225   4.8646   5.2841   5.5053   5.8174   6.0775   6.2991

          k =-0.3864-0.4246 0.3351 ( 18089 PWs)   bands (ev):

   -32.0725 -32.0548 -32.0401 -32.0283 -12.8381 -12.8033 -12.7771 -12.6996
   -12.5397 -12.5089 -12.4739 -12.4483 -12.4407 -12.4043 -12.3447 -12.3406
     3.3948   4.0450   4.2780   4.7499   5.8539   5.9886   6.0702   6.2532

          k =-0.3866 0.4246-0.3354 ( 18089 PWs)   bands (ev):

   -32.0726 -32.0543 -32.0408 -32.0279 -12.8382 -12.8038 -12.7761 -12.6999
   -12.5393 -12.5095 -12.4744 -12.4476 -12.4405 -12.4047 -12.3442 -12.3409
     3.3955   4.0459   4.2731   4.7540   5.8482   5.9970   6.0680   6.2522

          k = 0.3864-0.4246-0.3351 ( 18089 PWs)   bands (ev):

   -32.0725 -32.0548 -32.0401 -32.0283 -12.8381 -12.8032 -12.7772 -12.6996
   -12.5396 -12.5089 -12.4738 -12.4483 -12.4407 -12.4043 -12.3447 -12.3406
     3.3948   4.0450   4.2780   4.7499   5.8539   5.9886   6.0702   6.2532

          k =-0.3865-0.7076 0.1116 ( 18120 PWs)   bands (ev):

   -32.0516 -32.0307 -32.0274 -32.0115 -12.8636 -12.8455 -12.8221 -12.8017
   -12.6481 -12.5917 -12.5657 -12.5335 -12.4088 -12.3838 -12.3552 -12.3416
     4.1225   4.6527   5.1600   5.2295   5.4178   5.5105   5.5923   5.7001

          k =-0.3865 0.7076-0.1119 ( 18120 PWs)   bands (ev):

   -32.0516 -32.0303 -32.0279 -32.0115 -12.8636 -12.8461 -12.8212 -12.8017
   -12.6486 -12.5913 -12.5664 -12.5330 -12.4087 -12.3838 -12.3553 -12.3416
     4.1236   4.6508   5.1582   5.2283   5.4215   5.5116   5.5935   5.6980

          k = 0.3865-0.7076-0.1116 ( 18120 PWs)   bands (ev):

   -32.0516 -32.0307 -32.0274 -32.0115 -12.8637 -12.8454 -12.8221 -12.8018
   -12.6481 -12.5916 -12.5657 -12.5336 -12.4088 -12.3838 -12.3552 -12.3416
     4.1225   4.6527   5.1600   5.2295   5.4178   5.5105   5.5922   5.7001

          k =-0.3864-0.7076 0.3351 ( 18101 PWs)   bands (ev):

   -32.0494 -32.0335 -32.0264 -32.0118 -12.9088 -12.8981 -12.8394 -12.8273
   -12.5823 -12.5544 -12.5257 -12.5084 -12.4113 -12.3861 -12.3618 -12.3489
     4.3474   4.7121   4.8490   5.0193   5.4422   5.4850   5.5747   5.6247

          k =-0.3866 0.7076-0.3354 ( 18101 PWs)   bands (ev):

   -32.0494 -32.0333 -32.0267 -32.0117 -12.9088 -12.8982 -12.8391 -12.8273
   -12.5829 -12.5543 -12.5253 -12.5085 -12.4108 -12.3864 -12.3619 -12.3489
     4.3505   4.7078   4.8419   5.0273   5.4453   5.4814   5.5769   5.6233

          k = 0.3864-0.7076-0.3351 ( 18101 PWs)   bands (ev):

   -32.0494 -32.0335 -32.0264 -32.0118 -12.9089 -12.8981 -12.8394 -12.8273
   -12.5823 -12.5544 -12.5256 -12.5084 -12.4113 -12.3861 -12.3618 -12.3489
     4.3474   4.7121   4.8490   5.0193   5.4422   5.4850   5.5747   5.6246

!    total energy              =    -303.06707388 Ry
     Harris-Foulkes estimate   =    -303.06706950 Ry
     estimated scf accuracy    <       0.00000006 Ry

     The total energy is the sum of the following terms:

     one-electron contribution =     -92.40006567 Ry
     hartree contribution      =      59.51107254 Ry
     xc contribution           =     -47.63603105 Ry
     ewald contribution        =    -222.54204971 Ry

     convergence has been achieved in   8 iterations

     Forces acting on atoms (Ry/au):

     atom    1 type  2   force =     0.00263169   -0.00136090    0.00469042
     atom    2 type  2   force =    -0.00301668    0.00006543    0.00526876
     atom    3 type  2   force =     0.00313093   -0.00005995   -0.00549242
     atom    4 type  2   force =    -0.00285818    0.00131617   -0.00505237
     atom    5 type  1   force =    -0.00208859    0.00000941    0.00160262
     atom    6 type  1   force =     0.00212312    0.00000058    0.00126192
     atom    7 type  1   force =    -0.00214053    0.00000958   -0.00164360
     atom    8 type  1   force =     0.00205195   -0.00000060    0.00145657
     atom    9 type  1   force =    -0.00106161   -0.00000117    0.00535643
     atom   10 type  1   force =     0.00104448    0.00001139    0.00545906
     atom   11 type  1   force =    -0.00089325   -0.00000145   -0.00741151
     atom   12 type  1   force =     0.00107669    0.00001151   -0.00549587

     Total force =     0.017717     Total SCF correction =     0.000621


     entering subroutine stress ...

          total   stress  (Ry/bohr**3)                   (kbar)     P=  202.63
   0.00133176  -0.00000001  -0.00000155        195.91     -0.00     -0.23
  -0.00000001   0.00137746  -0.00000005         -0.00    202.63     -0.01
  -0.00000155  -0.00000005   0.00142304         -0.23     -0.01    209.34


     number of scf cycles    =   3
     number of bfgs steps    =   2

     enthalpy old            =    -302.0396989717 Ry
     enthalpy new            =    -302.0445127948 Ry

     CASE: enthalpy_new < enthalpy_old

     new trust radius        =       0.0086479290 bohr
     new conv_thr            =       0.0000000741 Ry

     new unit-cell volume =    751.36657 a.u.^3 (   111.34104 Ang^3 )

CELL_PARAMETERS (alat= 10.55800000)
   0.968756466  -0.000000227  -0.000324523
  -0.000000136   0.588638939   0.000000860
  -0.000372510   0.000001639   1.119549612

ATOMIC_POSITIONS (crystal)
Ca       0.240905255   0.250000005   0.111947636    1   0   1
Ca       0.258956057  -0.249999995   0.611707900    1   0   1
Ca       0.741223579   0.249999994   0.387844713    1   0   1
Ca      -0.241124346  -0.250000005  -0.112012468    1   0   1
H        0.355040463   0.250000001   0.426799195    1   0   1
H        0.144922190  -0.249999999   0.926628748    1   0   1
H        0.855069806   0.249999999   0.073262190    1   0   1
H       -0.355153869  -0.249999998  -0.428391394    1   0   1
H        0.975083391   0.250000004   0.678033661    1   0   1
H       -0.475116733  -0.249999995   1.178039623    1   0   1
H        1.475254656   0.249999994  -0.175820408    1   0   1
H       -0.975060448  -0.250000005  -0.678039396    1   0   1



     Writing output data file CaH2_ambient.save
     NEW-OLD atomic charge density approx. for the potential
     NEW k-points:
        k(    1) = (   0.1290688   0.1415694   0.1116948), wk =   0.0416667
        k(    2) = (   0.1291437   0.1415691   0.3349989), wk =   0.0416667
        k(    3) = (   0.1290689   0.4247084   0.1116944), wk =   0.0416667
        k(    4) = (   0.1291437   0.4247081   0.3349985), wk =   0.0416667
        k(    5) = (   0.1290690   0.7078475   0.1116940), wk =   0.0416667
        k(    6) = (   0.1291438   0.7078472   0.3349981), wk =   0.0416667
        k(    7) = (   0.3871317   0.1415694   0.1117806), wk =   0.0416667
        k(    8) = (   0.3872065   0.1415691   0.3350848), wk =   0.0416667
        k(    9) = (   0.3871317   0.4247085   0.1117802), wk =   0.0416667
        k(   10) = (   0.3872065   0.4247082   0.3350843), wk =   0.0416667
        k(   11) = (   0.3871318   0.7078475   0.1117798), wk =   0.0416667
        k(   12) = (   0.3872066   0.7078472   0.3350839), wk =   0.0416667
        k(   13) = (  -0.1289940  -0.1415697   0.1116093), wk =   0.0416667
        k(   14) = (  -0.1290688   0.1415697  -0.1116952), wk =   0.0416667
        k(   15) = (   0.1289940  -0.1415693  -0.1116089), wk =   0.0416667
        k(   16) = (  -0.1289192  -0.1415700   0.3349134), wk =   0.0416667
        k(   17) = (  -0.1291436   0.1415700  -0.3349993), wk =   0.0416667
        k(   18) = (   0.1289192  -0.1415690  -0.3349130), wk =   0.0416667
        k(   19) = (  -0.1289941  -0.4247088   0.1116097), wk =   0.0416667
        k(   20) = (  -0.1290687   0.4247087  -0.1116956), wk =   0.0416667
        k(   21) = (   0.1289939  -0.4247084  -0.1116085), wk =   0.0416667
        k(   22) = (  -0.1289193  -0.4247091   0.3349139), wk =   0.0416667
        k(   23) = (  -0.1291435   0.4247090  -0.3349997), wk =   0.0416667
        k(   24) = (   0.1289191  -0.4247080  -0.3349126), wk =   0.0416667
        k(   25) = (  -0.1289942  -0.7078478   0.1116102), wk =   0.0416667
        k(   26) = (  -0.1290686   0.7078477  -0.1116960), wk =   0.0416667
        k(   27) = (   0.1289938  -0.7078474  -0.1116081), wk =   0.0416667
        k(   28) = (  -0.1289194  -0.7078481   0.3349143), wk =   0.0416667
        k(   29) = (  -0.1291435   0.7078481  -0.3350001), wk =   0.0416667
        k(   30) = (   0.1289190  -0.7078471  -0.3349122), wk =   0.0416667
        k(   31) = (  -0.3870569  -0.1415698   0.1115235), wk =   0.0416667
        k(   32) = (  -0.3871316   0.1415696  -0.1117811), wk =   0.0416667
        k(   33) = (   0.3870568  -0.1415693  -0.1115230), wk =   0.0416667
        k(   34) = (  -0.3869821  -0.1415701   0.3348276), wk =   0.0416667
        k(   35) = (  -0.3872064   0.1415699  -0.3350852), wk =   0.0416667
        k(   36) = (   0.3869820  -0.1415689  -0.3348272), wk =   0.0416667
        k(   37) = (  -0.3870569  -0.4247088   0.1115239), wk =   0.0416667
        k(   38) = (  -0.3871315   0.4247086  -0.1117815), wk =   0.0416667
        k(   39) = (   0.3870567  -0.4247083  -0.1115226), wk =   0.0416667
        k(   40) = (  -0.3869821  -0.4247091   0.3348280), wk =   0.0416667
        k(   41) = (  -0.3872063   0.4247090  -0.3350856), wk =   0.0416667
        k(   42) = (   0.3869819  -0.4247080  -0.3348267), wk =   0.0416667
        k(   43) = (  -0.3870570  -0.7078479   0.1115243), wk =   0.0416667
        k(   44) = (  -0.3871315   0.7078477  -0.1117819), wk =   0.0416667
[...]

     total energy              =    -303.06399751 Ry
     Harris-Foulkes estimate   =    -303.06399754 Ry
     estimated scf accuracy    <       0.00000055 Ry

     iteration # 10     ecut=   120.00 Ry     beta=0.30
     Davidson diagonalization with overlap
     ethr =  1.14E-09,  avg # of iterations =  1.9

     total cpu time spent up to now is    57603.8 secs

     total energy              =    -303.06399757 Ry
     Harris-Foulkes estimate   =    -303.06399753 Ry
     estimated scf accuracy    <       0.00000048 Ry

     iteration # 11     ecut=   120.00 Ry     beta=0.30
     Davidson diagonalization with overlap
     ethr =  1.00E-09,  avg # of iterations =  1.0

     total cpu time spent up to now is    57723.1 secs

     total energy              =    -303.06399726 Ry
     Harris-Foulkes estimate   =    -303.06399758 Ry
     estimated scf accuracy    <       0.00000056 Ry

     iteration # 12     ecut=   120.00 Ry     beta=0.30
     Davidson diagonalization with overlap
     ethr =  1.00E-09,  avg # of iterations =  2.0

     total cpu time spent up to now is    57871.7 secs

     total energy              =    -303.06399737 Ry
     Harris-Foulkes estimate   =    -303.06399737 Ry
     estimated scf accuracy    <       0.00000005 Ry

     iteration # 13     ecut=   120.00 Ry     beta=0.30
     Davidson diagonalization with overlap
     ethr =  1.02E-10,  avg # of iterations =  2.5

     total cpu time spent up to now is    58019.5 secs

     total energy              =    -303.06399737 Ry
     Harris-Foulkes estimate   =    -303.06399737 Ry
     estimated scf accuracy    <       0.00000003 Ry

     iteration # 14     ecut=   120.00 Ry     beta=0.30
     Davidson diagonalization with overlap
     ethr =  7.04E-11,  avg # of iterations =  1.0

     total cpu time spent up to now is    58139.3 secs

     total energy              =    -303.06399736 Ry
     Harris-Foulkes estimate   =    -303.06399737 Ry
     estimated scf accuracy    <       0.00000003 Ry

     iteration # 15     ecut=   120.00 Ry     beta=0.30
     Davidson diagonalization with overlap
     ethr =  6.20E-11,  avg # of iterations =  2.0

     total cpu time spent up to now is    58295.6 secs

     End of self-consistent calculation

          k = 0.1310 0.1410 0.1106 ( 16630 PWs)   bands (ev):

   -32.1101 -32.0375 -32.0144 -32.0063 -12.9446 -12.7946 -12.7401 -12.5621
   -12.4618 -12.4309 -12.4044 -12.3281 -12.2975 -12.2791 -12.2680 -12.2568
     1.6384   4.1360   4.6183   5.1425   5.7176   5.9219   6.0613   7.1085

          k = 0.1310 0.1410 0.3318 ( 16634 PWs)   bands (ev):

   -32.0929 -32.0651 -32.0061 -32.0045 -12.8886 -12.8101 -12.6457 -12.5754
   -12.5243 -12.4510 -12.3849 -12.3483 -12.3306 -12.2812 -12.2724 -12.2668
     2.1604   3.0692   4.9358   5.3691   5.7887   5.8996   6.3294   6.8600

          k = 0.1310 0.4230 0.1106 ( 16657 PWs)   bands (ev):

   -32.0815 -32.0267 -31.9983 -31.9910 -12.8732 -12.7300 -12.7128 -12.5945
   -12.5524 -12.5363 -12.4863 -12.4471 -12.4300 -12.4015 -12.2927 -12.2736
     2.4576   4.5234   4.9172   5.2458   5.6307   5.7163   5.9393   6.5411

          k = 0.1310 0.4230 0.3318 ( 16643 PWs)   bands (ev):

   -32.0681 -32.0466 -31.9924 -31.9903 -12.8329 -12.7764 -12.6628 -12.6123
   -12.5907 -12.5402 -12.5017 -12.4554 -12.3960 -12.3481 -12.3262 -12.2894
     2.8983   3.6659   5.1078   5.3751   5.6245   5.6972   6.0819   6.3737

          k = 0.1310 0.7051 0.1106 ( 16623 PWs)   bands (ev):

   -32.0449 -32.0245 -31.9797 -31.9766 -12.8171 -12.8022 -12.7487 -12.7256
   -12.6406 -12.6247 -12.5738 -12.4961 -12.4264 -12.3564 -12.3447 -12.3063
     3.7859   5.0379   5.0934   5.2271   5.3427   5.4411   5.5786   5.7628

          k = 0.1310 0.7051 0.3318 ( 16671 PWs)   bands (ev):

   -32.0394 -32.0310 -31.9785 -31.9772 -12.8622 -12.8535 -12.7138 -12.6917
   -12.6699 -12.6617 -12.5306 -12.5019 -12.3773 -12.3404 -12.3324 -12.3198
     4.0693   4.5680   5.1719   5.2712   5.3514   5.4408   5.4854   5.5735

          k = 0.3932 0.1410 0.1106 ( 16625 PWs)   bands (ev):

   -32.0804 -32.0385 -32.0297 -32.0201 -12.9026 -12.8801 -12.7703 -12.5250
   -12.4036 -12.3822 -12.3744 -12.3402 -12.3194 -12.3036 -12.2947 -12.2798
     2.3293   3.4587   4.5203   5.0963   5.4981   5.8716   6.6308   7.0305

          k = 0.3931 0.1410 0.3318 ( 16613 PWs)   bands (ev):

   -32.0677 -32.0484 -32.0301 -32.0225 -12.8516 -12.7968 -12.7687 -12.6267
   -12.4286 -12.4169 -12.3581 -12.3271 -12.3183 -12.3045 -12.3012 -12.2877
     2.7934   3.5633   3.9004   4.5045   6.0615   6.3397   6.4650   6.8078

          k = 0.3932 0.4230 0.1106 ( 16631 PWs)   bands (ev):

   -32.0554 -32.0194 -32.0169 -32.0058 -12.8390 -12.8146 -12.7623 -12.6101
   -12.5655 -12.4915 -12.4599 -12.4345 -12.3797 -12.3328 -12.3266 -12.3179
     3.0376   3.9718   4.8639   5.3152   5.5162   5.8529   6.1770   6.4189

          k = 0.3931 0.4230 0.3318 ( 16643 PWs)   bands (ev):

   -32.0458 -32.0310 -32.0131 -32.0077 -12.8274 -12.7946 -12.7614 -12.6804
   -12.5125 -12.4795 -12.4468 -12.4276 -12.4069 -12.3748 -12.3129 -12.3106
     3.4251   4.0677   4.3278   4.8036   5.8771   6.0635   6.0974   6.3150

          k = 0.3932 0.7051 0.1106 ( 16642 PWs)   bands (ev):

   -32.0251 -32.0113 -31.9971 -31.9925 -12.8409 -12.8250 -12.7932 -12.7729
   -12.6320 -12.5688 -12.5494 -12.5208 -12.3745 -12.3534 -12.3180 -12.3149
     4.1517   4.6879   5.1347   5.2532   5.4602   5.5549   5.6704   5.7606

          k = 0.3931 0.7051 0.3318 ( 16655 PWs)   bands (ev):

   -32.0213 -32.0156 -31.9955 -31.9936 -12.8841 -12.8749 -12.8072 -12.7960
   -12.5685 -12.5403 -12.5101 -12.4956 -12.3760 -12.3549 -12.3289 -12.3194
     4.3779   4.7364   4.8830   5.0608   5.4785   5.5267   5.6160   5.6541

          k =-0.1311-0.1410 0.1106 ( 16631 PWs)   bands (ev):

   -32.1101 -32.0376 -32.0143 -32.0064 -12.9445 -12.7951 -12.7397 -12.5624
   -12.4613 -12.4310 -12.4044 -12.3281 -12.2975 -12.2791 -12.2679 -12.2570
     1.6386   4.1349   4.6182   5.1434   5.7212   5.9223   6.0571   7.1088

          k =-0.1310 0.1410-0.1106 ( 16630 PWs)   bands (ev):

   -32.1101 -32.0375 -32.0144 -32.0063 -12.9446 -12.7946 -12.7401 -12.5621
   -12.4618 -12.4308 -12.4044 -12.3281 -12.2975 -12.2791 -12.2680 -12.2569
     1.6384   4.1360   4.6183   5.1425   5.7176   5.9219   6.0613   7.1085

          k = 0.1311-0.1410-0.1106 ( 16629 PWs)   bands (ev):

   -32.1101 -32.0376 -32.0143 -32.0064 -12.9445 -12.7951 -12.7396 -12.5624
   -12.4613 -12.4310 -12.4044 -12.3280 -12.2975 -12.2791 -12.2680 -12.2571
     1.6386   4.1349   4.6182   5.1434   5.7212   5.9223   6.0571   7.1089

          k =-0.1312-0.1410 0.3318 ( 16633 PWs)   bands (ev):

   -32.0928 -32.0652 -32.0057 -32.0048 -12.8882 -12.8108 -12.6449 -12.5758
   -12.5246 -12.4507 -12.3850 -12.3478 -12.3309 -12.2814 -12.2724 -12.2668
     2.1608   3.0684   4.9342   5.3718   5.7892   5.9007   6.3261   6.8610

          k =-0.1310 0.1410-0.3318 ( 16634 PWs)   bands (ev):

   -32.0929 -32.0651 -32.0061 -32.0045 -12.8886 -12.8101 -12.6457 -12.5754
   -12.5243 -12.4510 -12.3850 -12.3483 -12.3307 -12.2811 -12.2724 -12.2668
     2.1604   3.0691   4.9358   5.3691   5.7887   5.8996   6.3295   6.8600

          k = 0.1312-0.1410-0.3318 ( 16633 PWs)   bands (ev):

   -32.0928 -32.0652 -32.0057 -32.0048 -12.8882 -12.8108 -12.6449 -12.5758
   -12.5246 -12.4506 -12.3851 -12.3478 -12.3309 -12.2814 -12.2724 -12.2668
     2.1608   3.0684   4.9342   5.3718   5.7892   5.9007   6.3260   6.8610

          k =-0.1311-0.4230 0.1106 ( 16659 PWs)   bands (ev):

   -32.0815 -32.0268 -31.9982 -31.9910 -12.8731 -12.7302 -12.7127 -12.5946
   -12.5521 -12.5367 -12.4862 -12.4472 -12.4298 -12.4016 -12.2925 -12.2738
     2.4577   4.5229   4.9171   5.2463   5.6318   5.7164   5.9378   6.5413

          k =-0.1310 0.4230-0.1106 ( 16657 PWs)   bands (ev):

   -32.0815 -32.0267 -31.9983 -31.9910 -12.8732 -12.7299 -12.7128 -12.5946
   -12.5523 -12.5364 -12.4863 -12.4471 -12.4300 -12.4015 -12.2927 -12.2736
     2.4576   4.5233   4.9172   5.2459   5.6306   5.7163   5.9392   6.5411

          k = 0.1311-0.4230-0.1106 ( 16659 PWs)   bands (ev):

   -32.0815 -32.0268 -31.9983 -31.9910 -12.8731 -12.7302 -12.7127 -12.5946
   -12.5521 -12.5367 -12.4861 -12.4472 -12.4298 -12.4016 -12.2925 -12.2738
     2.4577   4.5229   4.9171   5.2462   5.6318   5.7164   5.9377   6.5413

          k =-0.1312-0.4230 0.3318 ( 16642 PWs)   bands (ev):

   -32.0681 -32.0467 -31.9922 -31.9905 -12.8326 -12.7767 -12.6632 -12.6122
   -12.5901 -12.5405 -12.5017 -12.4554 -12.3962 -12.3478 -12.3261 -12.2897
     2.8986   3.6655   5.1074   5.3754   5.6263   5.6967   6.0802   6.3744

          k =-0.1310 0.4230-0.3318 ( 16643 PWs)   bands (ev):

   -32.0681 -32.0466 -31.9924 -31.9903 -12.8329 -12.7764 -12.6627 -12.6122
   -12.5907 -12.5402 -12.5017 -12.4554 -12.3961 -12.3482 -12.3262 -12.2894
     2.8983   3.6658   5.1078   5.3751   5.6245   5.6972   6.0819   6.3737

          k = 0.1312-0.4230-0.3318 ( 16642 PWs)   bands (ev):

   -32.0681 -32.0467 -31.9922 -31.9905 -12.8326 -12.7767 -12.6632 -12.6121
   -12.5901 -12.5404 -12.5018 -12.4554 -12.3962 -12.3478 -12.3261 -12.2897
     2.8985   3.6655   5.1073   5.3753   5.6263   5.6967   6.0802   6.3744

          k =-0.1311-0.7051 0.1106 ( 16621 PWs)   bands (ev):

   -32.0449 -32.0245 -31.9797 -31.9766 -12.8172 -12.8018 -12.7490 -12.7253
   -12.6407 -12.6255 -12.5730 -12.4961 -12.4266 -12.3563 -12.3448 -12.3063
     3.7859   5.0390   5.0926   5.2267   5.3438   5.4406   5.5784   5.7624

          k =-0.1310 0.7051-0.1106 ( 16623 PWs)   bands (ev):

   -32.0449 -32.0245 -31.9797 -31.9766 -12.8171 -12.8022 -12.7487 -12.7255
   -12.6404 -12.6248 -12.5739 -12.4961 -12.4264 -12.3564 -12.3447 -12.3063
     3.7859   5.0378   5.0934   5.2271   5.3427   5.4411   5.5786   5.7628

          k = 0.1311-0.7051-0.1106 ( 16622 PWs)   bands (ev):

   -32.0449 -32.0245 -31.9797 -31.9766 -12.8172 -12.8018 -12.7490 -12.7253
   -12.6406 -12.6255 -12.5731 -12.4961 -12.4266 -12.3563 -12.3448 -12.3063
     3.7859   5.0391   5.0925   5.2267   5.3439   5.4406   5.5784   5.7623

          k =-0.1312-0.7051 0.3318 ( 16667 PWs)   bands (ev):

   -32.0394 -32.0310 -31.9784 -31.9772 -12.8622 -12.8534 -12.7134 -12.6916
   -12.6707 -12.6618 -12.5302 -12.5020 -12.3776 -12.3401 -12.3322 -12.3201
     4.0691   4.5685   5.1706   5.2720   5.3531   5.4413   5.4842   5.5726

          k =-0.1310 0.7051-0.3318 ( 16671 PWs)   bands (ev):

   -32.0394 -32.0310 -31.9785 -31.9772 -12.8622 -12.8535 -12.7138 -12.6917
   -12.6700 -12.6616 -12.5306 -12.5019 -12.3773 -12.3405 -12.3324 -12.3198
     4.0694   4.5680   5.1719   5.2712   5.3514   5.4408   5.4854   5.5735

          k = 0.1312-0.7051-0.3318 ( 16667 PWs)   bands (ev):

   -32.0394 -32.0310 -31.9784 -31.9772 -12.8622 -12.8534 -12.7135 -12.6916
   -12.6707 -12.6617 -12.5302 -12.5019 -12.3777 -12.3401 -12.3322 -12.3201
     4.0691   4.5686   5.1705   5.2720   5.3531   5.4413   5.4843   5.5725

          k =-0.3933-0.1410 0.1106 ( 16625 PWs)   bands (ev):

   -32.0803 -32.0388 -32.0293 -32.0202 -12.9035 -12.8793 -12.7700 -12.5252
   -12.4039 -12.3820 -12.3743 -12.3402 -12.3195 -12.3035 -12.2947 -12.2797
     2.3297   3.4581   4.5175   5.1016   5.4994   5.8676   6.6309   7.0310

          k =-0.3932 0.1410-0.1106 ( 16625 PWs)   bands (ev):

   -32.0804 -32.0385 -32.0297 -32.0201 -12.9026 -12.8801 -12.7703 -12.5249
   -12.4036 -12.3822 -12.3743 -12.3401 -12.3195 -12.3036 -12.2947 -12.2798
     2.3293   3.4587   4.5203   5.0963   5.4981   5.8716   6.6308   7.0305

          k = 0.3933-0.1410-0.1106 ( 16625 PWs)   bands (ev):

   -32.0803 -32.0388 -32.0293 -32.0202 -12.9035 -12.8793 -12.7700 -12.5252
   -12.4040 -12.3821 -12.3742 -12.3401 -12.3195 -12.3035 -12.2947 -12.2797
     2.3297   3.4581   4.5175   5.1016   5.4994   5.8676   6.6309   7.0310

          k =-0.3933-0.1410 0.3319 ( 16611 PWs)   bands (ev):

   -32.0675 -32.0487 -32.0299 -32.0226 -12.8527 -12.7954 -12.7685 -12.6272
   -12.4289 -12.4167 -12.3579 -12.3272 -12.3184 -12.3044 -12.3010 -12.2877
     2.7947   3.5610   3.8992   4.5073   6.0637   6.3357   6.4648   6.8093

          k =-0.3931 0.1410-0.3318 ( 16613 PWs)   bands (ev):

   -32.0677 -32.0484 -32.0301 -32.0225 -12.8516 -12.7968 -12.7687 -12.6267
   -12.4286 -12.4168 -12.3581 -12.3271 -12.3182 -12.3044 -12.3012 -12.2878
     2.7935   3.5633   3.9004   4.5044   6.0615   6.3397   6.4651   6.8078

          k = 0.3933-0.1410-0.3319 ( 16612 PWs)   bands (ev):

   -32.0675 -32.0487 -32.0299 -32.0226 -12.8527 -12.7954 -12.7684 -12.6272
   -12.4289 -12.4167 -12.3579 -12.3273 -12.3183 -12.3043 -12.3011 -12.2877
     2.7947   3.5610   3.8992   4.5073   6.0637   6.3357   6.4649   6.8093

          k =-0.3933-0.4230 0.1106 ( 16629 PWs)   bands (ev):

   -32.0553 -32.0201 -32.0162 -32.0058 -12.8395 -12.8141 -12.7622 -12.6100
   -12.5655 -12.4916 -12.4603 -12.4345 -12.3799 -12.3327 -12.3265 -12.3179
     3.0378   3.9715   4.8627   5.3164   5.5183   5.8504   6.1766   6.4197

          k =-0.3932 0.4230-0.1106 ( 16631 PWs)   bands (ev):

   -32.0554 -32.0194 -32.0169 -32.0058 -12.8390 -12.8146 -12.7624 -12.6099
   -12.5655 -12.4915 -12.4599 -12.4345 -12.3798 -12.3329 -12.3265 -12.3179
     3.0376   3.9717   4.8638   5.3151   5.5163   5.8529   6.1771   6.4189

          k = 0.3933-0.4230-0.1106 ( 16629 PWs)   bands (ev):

   -32.0553 -32.0201 -32.0162 -32.0058 -12.8395 -12.8141 -12.7623 -12.6099
   -12.5655 -12.4915 -12.4602 -12.4344 -12.3799 -12.3327 -12.3264 -12.3179
     3.0378   3.9715   4.8628   5.3165   5.5183   5.8503   6.1767   6.4197

          k =-0.3933-0.4230 0.3319 ( 16646 PWs)   bands (ev):

   -32.0457 -32.0313 -32.0128 -32.0078 -12.8280 -12.7938 -12.7613 -12.6805
   -12.5125 -12.4796 -12.4468 -12.4278 -12.4072 -12.3746 -12.3131 -12.3104
     3.4258   4.0666   4.3274   4.8045   5.8795   6.0614   6.0954   6.3166

          k =-0.3931 0.4230-0.3318 ( 16643 PWs)   bands (ev):

   -32.0458 -32.0310 -32.0131 -32.0077 -12.8274 -12.7946 -12.7614 -12.6804
   -12.5125 -12.4794 -12.4469 -12.4277 -12.4069 -12.3749 -12.3129 -12.3106
     3.4252   4.0677   4.3277   4.8035   5.8772   6.0635   6.0974   6.3150

          k = 0.3933-0.4230-0.3319 ( 16646 PWs)   bands (ev):

   -32.0457 -32.0313 -32.0128 -32.0078 -12.8281 -12.7939 -12.7613 -12.6804
   -12.5125 -12.4795 -12.4468 -12.4278 -12.4072 -12.3746 -12.3130 -12.3104
     3.4258   4.0666   4.3274   4.8045   5.8795   6.0614   6.0954   6.3166

          k =-0.3933-0.7051 0.1106 ( 16644 PWs)   bands (ev):

   -32.0251 -32.0113 -31.9970 -31.9925 -12.8411 -12.8250 -12.7929 -12.7725
   -12.6325 -12.5686 -12.5500 -12.5203 -12.3745 -12.3534 -12.3180 -12.3148
     4.1515   4.6884   5.1349   5.2534   5.4595   5.5554   5.6699   5.7605

          k =-0.3932 0.7051-0.1106 ( 16643 PWs)   bands (ev):

   -32.0251 -32.0113 -31.9971 -31.9925 -12.8408 -12.8250 -12.7932 -12.7728
   -12.6319 -12.5689 -12.5494 -12.5208 -12.3745 -12.3534 -12.3181 -12.3148
     4.1518   4.6879   5.1347   5.2532   5.4602   5.5549   5.6705   5.7607

          k = 0.3933-0.7051-0.1106 ( 16643 PWs)   bands (ev):

   -32.0251 -32.0113 -31.9970 -31.9925 -12.8411 -12.8251 -12.7929 -12.7724
   -12.6324 -12.5687 -12.5499 -12.5203 -12.3746 -12.3534 -12.3180 -12.3147
     4.1515   4.6884   5.1349   5.2534   5.4596   5.5554   5.6699   5.7605

          k =-0.3933-0.7051 0.3319 ( 16657 PWs)   bands (ev):

   -32.0212 -32.0157 -31.9954 -31.9937 -12.8842 -12.8749 -12.8071 -12.7958
   -12.5691 -12.5403 -12.5095 -12.4957 -12.3763 -12.3547 -12.3290 -12.3192
     4.3771   4.7381   4.8848   5.0579   5.4790   5.5276   5.6165   5.6525

          k =-0.3931 0.7051-0.3318 ( 16655 PWs)   bands (ev):

   -32.0213 -32.0156 -31.9955 -31.9936 -12.8841 -12.8749 -12.8072 -12.7960
   -12.5685 -12.5402 -12.5102 -12.4957 -12.3760 -12.3549 -12.3289 -12.3193
     4.3780   4.7364   4.8830   5.0608   5.4785   5.5267   5.6161   5.6541

          k = 0.3933-0.7051-0.3319 ( 16657 PWs)   bands (ev):

   -32.0212 -32.0157 -31.9954 -31.9937 -12.8842 -12.8749 -12.8071 -12.7958
   -12.5690 -12.5403 -12.5096 -12.4957 -12.3763 -12.3547 -12.3290 -12.3192
     4.3771   4.7381   4.8847   5.0579   5.4790   5.5276   5.6165   5.6525

!    total energy              =    -303.06399736 Ry
     Harris-Foulkes estimate   =    -303.06399736 Ry
     estimated scf accuracy    <          5.9E-10 Ry

     The total energy is the sum of the following terms:

     one-electron contribution =     -91.77653580 Ry
     hartree contribution      =      59.24780547 Ry
     xc contribution           =     -47.62769656 Ry
     ewald contribution        =    -222.90757048 Ry

     convergence has been achieved in  15 iterations

     Forces acting on atoms (Ry/au):

     atom    1 type  2   force =     0.00027638   -0.00002682   -0.00002593
     atom    2 type  2   force =     0.00014746    0.00003066    0.00030299
     atom    3 type  2   force =    -0.00012913   -0.00003071   -0.00032236
     atom    4 type  2   force =    -0.00028925    0.00002725   -0.00002538
     atom    5 type  1   force =    -0.00021311    0.00000142   -0.00012750
     atom    6 type  1   force =     0.00018766    0.00000188    0.00000955
     atom    7 type  1   force =    -0.00018318   -0.00000198    0.00002527
     atom    8 type  1   force =     0.00020472   -0.00000153    0.00023514
     atom    9 type  1   force =     0.00002637   -0.00000063    0.00034937
     atom   10 type  1   force =    -0.00017339    0.00000029    0.00049418
     atom   11 type  1   force =     0.00017378   -0.00000038   -0.00055184
     atom   12 type  1   force =    -0.00002831    0.00000053   -0.00036350

     Total force =     0.001220     Total SCF correction =     0.000055


     entering subroutine stress ...

          total   stress  (Ry/bohr**3)                   (kbar)     P=  198.38
   0.00134252   0.00000001  -0.00000203        197.49      0.00     -0.30
   0.00000001   0.00135087  -0.00000006          0.00    198.72     -0.01
  -0.00000203  -0.00000006   0.00135222         -0.30     -0.01    198.92


     Writing output data file CaH2_ambient.save

     init_run     :    421.97s CPU    429.13s WALL (       2 calls)
     electrons    :  44574.23s CPU  45288.52s WALL (      44 calls)
     update_pot   :   4419.85s CPU   4430.47s WALL (      42 calls)
     forces       :   2507.75s CPU   2524.21s WALL (      44 calls)
     stress       :   5708.45s CPU   5740.40s WALL (      44 calls)

     Called by init_run:
     wfcinit      :    308.80s CPU    315.18s WALL (       2 calls)
     potinit      :     51.52s CPU     51.62s WALL (       2 calls)

     Called by electrons:
     c_bands      :  39662.93s CPU  40297.22s WALL (     243 calls)
     sum_band     :   4673.44s CPU   4746.88s WALL (     243 calls)
     v_of_rho     :    125.36s CPU    127.79s WALL (     249 calls)
     mix_rho      :    129.68s CPU    132.97s WALL (     243 calls)

     Called by c_bands:
     init_us_2    :   1090.69s CPU   1099.09s WALL (   27648 calls)
     cegterg      :  38372.89s CPU  38578.08s WALL (   11664 calls)

     Called by *egterg:
     h_psi        :  28824.19s CPU  28974.62s WALL (   41177 calls)
     g_psi        :    142.95s CPU    143.80s WALL (   29417 calls)
     cdiaghg      :    108.32s CPU    108.79s WALL (   37241 calls)

     Called by h_psi:
     add_vuspsi   :   3010.30s CPU   3024.08s WALL (   41177 calls)

     General routines
     calbec       :   3294.45s CPU   3310.72s WALL (   45401 calls)
     fft          :     53.62s CPU     54.34s WALL (    3165 calls)
     ffts         :     55.75s CPU     56.01s WALL (    3289 calls)
     fftw         :  22303.12s CPU  22419.10s WALL ( 1860292 calls)
     davcio       :      6.09s CPU    493.57s WALL (   39312 calls)


     PWSCF        :    16h 0m CPU       16h13m WALL


   This run was terminated on:   8:13:20  13Jun2014            

=------------------------------------------------------------------------------=
   JOB DONE.
=------------------------------------------------------------------------------=
