
     Program PWSCF v.5.0.2 (svn rev. 9392) starts on  4Jun2014 at  2: 8:34 

     This program is part of the open-source Quantum ESPRESSO suite
     for quantum simulation of materials; please cite
         "P. Giannozzi et al., J. Phys.:Condens. Matter 21 395502 (2009);
          URL http://www.quantum-espresso.org", 
     in publications or presentations arising from this work. More details at
     http://www.quantum-espresso.org/quote.php

     Serial version

     Current dimensions of program PWSCF are:
     Max number of different atomic species (ntypx) = 10
     Max number of k-points (npk) =  40000
     Max angular momentum in pseudopotentials (lmaxx) =  3
     Waiting for input...
     Reading input from standard input

     G-vector sticks info
     --------------------
     sticks:   dense  smooth     PW     G-vecs:    dense   smooth      PW
     Sum         983     983    291                34015    34015    5283



     bravais-lattice index     =            8
     lattice parameter (alat)  =      11.2803  a.u.
     unit-cell volume          =     994.0292 (a.u.)^3
     number of atoms/cell      =           12
     number of atomic types    =            2
     number of electrons       =        48.00
     number of Kohn-Sham states=           24
     kinetic-energy cutoff     =      40.0000  Ry
     charge density cutoff     =     160.0000  Ry
     convergence threshold     =      1.0E-06
     mixing beta               =       0.3000
     number of iterations used =           16  local-TF  mixing
     Exchange-correlation      = PBE ( 1 4 3 4 0)
     EXX-fraction              =        0.00
     nstep                     =           50


     celldm(1)=  11.280300  celldm(2)=   0.604300  celldm(3)=   1.146000
     celldm(4)=   0.000000  celldm(5)=   0.000000  celldm(6)=   0.000000

     crystal axes: (cart. coord. in units of alat)
               a(1) = (   1.000000   0.000000   0.000000 )  
               a(2) = (   0.000000   0.604300   0.000000 )  
               a(3) = (   0.000000   0.000000   1.146000 )  

     reciprocal axes: (cart. coord. in units 2 pi/alat)
               b(1) = (  1.000000  0.000000  0.000000 )  
               b(2) = (  0.000000  1.654807  0.000000 )  
               b(3) = (  0.000000  0.000000  0.872600 )  


     PseudoPot. # 1 for H  read from file:
     /home/ilia/espresso/pseudo/H.pbe-sp-mt.ncpp
     MD5 check sum: 7a641936b52ccecd26bd1ad87cca5aed
     Pseudo is Norm-conserving, Zval =  1.0
     Generated by old ld1 code (numerical format)
     Using radial grid of 1076 points,  0 beta functions with: 

     PseudoPot. # 2 for Ca read from file:
     /home/ilia/espresso/pseudo/Ca.pbe-sp-mt_ion2.ncpp
     MD5 check sum: 4bcd670d05521f7b178fdf0a334578ab
     Pseudo is Norm-conserving, Zval = 10.0
     Generated by old ld1 code (numerical format)
     Using radial grid of 1153 points,  1 beta functions with: 
                l(1) =   1

     atomic species   valence    mass     pseudopotential
        H              1.00     1.00700     H ( 1.00)
        Ca            10.00    40.07800     Ca( 1.00)

     No symmetry found
          (note:  1 additional sym.ops. were found but ignored
           their fractional translations are incommensurate with FFT grid)


   Cartesian axes

     site n.     atom                  positions (alat units)
         1           Ca  tau(   1) = (   0.2400000   0.1510750   0.1259454  )
         2           Ca  tau(   2) = (   0.2600000  -0.1510750   0.6989454  )
         3           Ca  tau(   3) = (   0.7400000   0.1510750   0.4470546  )
         4           Ca  tau(   4) = (  -0.2400000  -0.1510750  -0.1259454  )
         5           H   tau(   5) = (   0.3557000   0.1510750   0.4887690  )
         6           H   tau(   6) = (   0.1443000  -0.1510750   1.0617690  )
         7           H   tau(   7) = (   0.8557000   0.1510750   0.0842310  )
         8           H   tau(   8) = (  -0.3557000  -0.1510750  -0.4922070  )
         9           H   tau(   9) = (   0.9754000   0.1510750   0.7752690  )
        10           H   tau(  10) = (  -0.4754000  -0.1510750   1.3482690  )
        11           H   tau(  11) = (   1.4754000   0.1510750  -0.1988310  )
        12           H   tau(  12) = (  -0.9754000  -0.1510750  -0.7752690  )

     number of k points=   108

     Number of k-points >= 100: set verbosity='high' to print them.

     Dense  grid:    34015 G-vectors     FFT dimensions: (  45,  27,  54)

     Largest allocated arrays     est. size (Mb)     dimensions
        Kohn-Sham Wavefunctions         1.56 Mb     (   4268,   24)
        NL pseudopotentials             0.78 Mb     (   4268,   12)
        Each V/rho on FFT grid          1.00 Mb     (  65610)
        Each G-vector array             0.26 Mb     (  34015)
        G-vector shells                 0.26 Mb     (  34015)
     Largest temporary arrays     est. size (Mb)     dimensions
        Auxiliary wavefunctions         6.25 Mb     (   4268,   96)
        Each subspace H/S matrix        0.14 Mb     (  96,  96)
        Each <psi_i|beta_j> matrix      0.00 Mb     (     12,   24)
        Arrays for rho mixing          16.02 Mb     (  65610,  16)

     Initial potential from superposition of free atoms

     starting charge   39.99992, renormalised to   48.00000
     Starting wfc are   24 randomized atomic wfcs

     total cpu time spent up to now is       56.4 secs

     per-process dynamical memory:    17.1 Mb

     Self-consistent Calculation

     iteration #  1     ecut=    40.00 Ry     beta=0.30
     Davidson diagonalization with overlap
     ethr =  1.00E-02,  avg # of iterations =  2.0

     total cpu time spent up to now is      138.0 secs

     total energy              =    -306.47248621 Ry
     Harris-Foulkes estimate   =    -308.75457630 Ry
     estimated scf accuracy    <      11.56521712 Ry

     iteration #  2     ecut=    40.00 Ry     beta=0.30
     Davidson diagonalization with overlap
     ethr =  1.00E-02,  avg # of iterations =  1.0

     total cpu time spent up to now is      188.9 secs

     total energy              =    -301.79593211 Ry
     Harris-Foulkes estimate   =    -306.59728518 Ry
     estimated scf accuracy    <       7.06306850 Ry

     iteration #  3     ecut=    40.00 Ry     beta=0.30
     Davidson diagonalization with overlap
     ethr =  1.00E-02,  avg # of iterations =  2.0

     total cpu time spent up to now is      270.3 secs

     total energy              =    -303.04582892 Ry
     Harris-Foulkes estimate   =    -303.07523321 Ry
     estimated scf accuracy    <       0.35070893 Ry

     iteration #  4     ecut=    40.00 Ry     beta=0.30
     Davidson diagonalization with overlap
     ethr =  7.31E-04,  avg # of iterations =  1.0

     total cpu time spent up to now is      322.1 secs

     total energy              =    -303.03333580 Ry
     Harris-Foulkes estimate   =    -303.05071658 Ry
     estimated scf accuracy    <       0.22564052 Ry

     iteration #  5     ecut=    40.00 Ry     beta=0.30
     Davidson diagonalization with overlap
     ethr =  4.70E-04,  avg # of iterations =  2.0

     total cpu time spent up to now is      384.5 secs

     total energy              =    -303.05082388 Ry
     Harris-Foulkes estimate   =    -303.05148951 Ry
     estimated scf accuracy    <       0.00813008 Ry

     iteration #  6     ecut=    40.00 Ry     beta=0.30
     Davidson diagonalization with overlap
     ethr =  1.69E-05,  avg # of iterations =  2.0

     total cpu time spent up to now is      441.6 secs

     total energy              =    -303.05162876 Ry
     Harris-Foulkes estimate   =    -303.05116958 Ry
     estimated scf accuracy    <       0.00439837 Ry

     iteration #  7     ecut=    40.00 Ry     beta=0.30
     Davidson diagonalization with overlap
     ethr =  9.16E-06,  avg # of iterations =  2.0

     total cpu time spent up to now is      503.8 secs

     total energy              =    -303.05126173 Ry
     Harris-Foulkes estimate   =    -303.05203494 Ry
     estimated scf accuracy    <       0.00122909 Ry

     iteration #  8     ecut=    40.00 Ry     beta=0.30
     Davidson diagonalization with overlap
     ethr =  2.56E-06,  avg # of iterations =  2.0

     total cpu time spent up to now is      582.2 secs

     total energy              =    -303.05151233 Ry
     Harris-Foulkes estimate   =    -303.05150480 Ry
     estimated scf accuracy    <       0.00002034 Ry

     iteration #  9     ecut=    40.00 Ry     beta=0.30
     Davidson diagonalization with overlap
     ethr =  4.24E-08,  avg # of iterations =  2.5

     total cpu time spent up to now is      643.6 secs

     total energy              =    -303.05150804 Ry
     Harris-Foulkes estimate   =    -303.05151586 Ry
     estimated scf accuracy    <       0.00002959 Ry

     iteration # 10     ecut=    40.00 Ry     beta=0.30
     Davidson diagonalization with overlap
     ethr =  4.24E-08,  avg # of iterations =  2.0

     total cpu time spent up to now is      711.8 secs

     End of self-consistent calculation

     Number of k-points >= 100: set verbosity='high' to print the bands.

!    total energy              =    -303.05150952 Ry
     Harris-Foulkes estimate   =    -303.05150979 Ry
     estimated scf accuracy    <       0.00000075 Ry

     The total energy is the sum of the following terms:

     one-electron contribution =    -121.74451130 Ry
     hartree contribution      =      68.07615896 Ry
     xc contribution           =     -46.61644453 Ry
     ewald contribution        =    -202.76671266 Ry

     convergence has been achieved in  10 iterations

     Forces acting on atoms (Ry/au):

     atom    1 type  2   force =    -0.00033836   -0.00114419   -0.00043883
     atom    2 type  2   force =    -0.00161341    0.00070798   -0.00142378
     atom    3 type  2   force =     0.00197308   -0.00070823   -0.00060445
     atom    4 type  2   force =    -0.00015704    0.00114508    0.00071155
     atom    5 type  1   force =    -0.00046958    0.00000139    0.00084641
     atom    6 type  1   force =     0.00029097   -0.00000126    0.00024858
     atom    7 type  1   force =    -0.00023970    0.00000111   -0.00049480
     atom    8 type  1   force =     0.00007765   -0.00000159    0.00326895
     atom    9 type  1   force =    -0.00011854    0.00000033    0.00001349
     atom   10 type  1   force =    -0.00009196   -0.00000187   -0.00002380
     atom   11 type  1   force =     0.00055668    0.00000174   -0.00216227
     atom   12 type  1   force =     0.00013020   -0.00000048    0.00005894

     Total force =     0.005519     Total SCF correction =     0.000252


     entering subroutine stress ...

          total   stress  (Ry/bohr**3)                   (kbar)     P=    9.75
   0.00006905   0.00000003  -0.00000125         10.16      0.00     -0.18
   0.00000003   0.00006412   0.00000001          0.00      9.43      0.00
  -0.00000125   0.00000001   0.00006562         -0.18      0.00      9.65


     BFGS Geometry Optimization

     number of scf cycles    =   1
     number of bfgs steps    =   0

     enthalpy new            =    -301.0243271452 Ry

     new trust radius        =       0.3113784715 bohr
     new conv_thr            =       0.0000010000 Ry

     new unit-cell volume =    854.06749 a.u.^3 (   126.55974 Ang^3 )

CELL_PARAMETERS (alat= 11.28030000)
   0.950742396   0.000000735  -0.000031358
   0.000000444   0.574459121   0.000000214
  -0.000035937   0.000000406   1.089452382

ATOMIC_POSITIONS (crystal)
Ca       0.239970004   0.249832148   0.109866054
Ca       0.259856971  -0.249896140   0.609789862
Ca       0.740174914   0.249896103   0.390053242
Ca      -0.240013921  -0.249832018  -0.109844957
H        0.355658372   0.250000203   0.426565475
H        0.144325795  -0.250000185   0.926519229
H        0.855678751   0.250000162   0.073461724
H       -0.355693117  -0.250000233  -0.429247127
H        0.975389492   0.250000049   0.676501044
H       -0.475408152  -0.250000274   1.176498159
H        1.475449350   0.250000255  -0.173667265
H       -0.975388458  -0.250000070  -0.676495440



     Writing output data file CaH2_ambient.save
     NEW-OLD atomic charge density approx. for the potential
     NEW k-points: (use verbosity='high' to print them)
     extrapolated charge   41.44495, renormalised to   48.00000

     total cpu time spent up to now is      808.5 secs

     per-process dynamical memory:    23.0 Mb

     Self-consistent Calculation

     iteration #  1     ecut=    40.00 Ry     beta=0.30
     Davidson diagonalization with overlap
     ethr =  1.00E-06,  avg # of iterations =  7.0

     total cpu time spent up to now is      963.3 secs

     total energy              =    -302.42822607 Ry
     Harris-Foulkes estimate   =    -311.45049112 Ry
     estimated scf accuracy    <       1.44680802 Ry

     iteration #  2     ecut=    40.00 Ry     beta=0.30
     Davidson diagonalization with overlap
     ethr =  3.01E-03,  avg # of iterations =  2.0

     total cpu time spent up to now is     1045.8 secs

     total energy              =    -303.03097248 Ry
     Harris-Foulkes estimate   =    -303.07420056 Ry
     estimated scf accuracy    <       0.15400794 Ry

     iteration #  3     ecut=    40.00 Ry     beta=0.30
     Davidson diagonalization with overlap
     ethr =  3.21E-04,  avg # of iterations =  1.0

     total cpu time spent up to now is     1097.3 secs

     total energy              =    -302.97263171 Ry
     Harris-Foulkes estimate   =    -303.03473731 Ry
     estimated scf accuracy    <       0.07973417 Ry

     iteration #  4     ecut=    40.00 Ry     beta=0.30
     Davidson diagonalization with overlap
     ethr =  1.66E-04,  avg # of iterations =  2.0

     total cpu time spent up to now is     1179.5 secs

     total energy              =    -302.99527829 Ry
     Harris-Foulkes estimate   =    -302.99542432 Ry
     estimated scf accuracy    <       0.00685796 Ry

     iteration #  5     ecut=    40.00 Ry     beta=0.30
     Davidson diagonalization with overlap
     ethr =  1.43E-05,  avg # of iterations =  1.0

     total cpu time spent up to now is     1231.2 secs

     total energy              =    -302.99373104 Ry
     Harris-Foulkes estimate   =    -302.99536048 Ry
     estimated scf accuracy    <       0.00244766 Ry

     iteration #  6     ecut=    40.00 Ry     beta=0.30
     Davidson diagonalization with overlap
     ethr =  5.10E-06,  avg # of iterations =  2.0

     total cpu time spent up to now is     1313.3 secs

     total energy              =    -302.99435420 Ry
     Harris-Foulkes estimate   =    -302.99434616 Ry
     estimated scf accuracy    <       0.00010843 Ry

     iteration #  7     ecut=    40.00 Ry     beta=0.30
     Davidson diagonalization with overlap
     ethr =  2.26E-07,  avg # of iterations =  1.3

     total cpu time spent up to now is     1366.7 secs

     total energy              =    -302.99431945 Ry
     Harris-Foulkes estimate   =    -302.99435516 Ry
     estimated scf accuracy    <       0.00011425 Ry

     iteration #  8     ecut=    40.00 Ry     beta=0.30
     Davidson diagonalization with overlap
     ethr =  2.26E-07,  avg # of iterations =  2.0

     total cpu time spent up to now is     1423.4 secs

     total energy              =    -302.99431608 Ry
     Harris-Foulkes estimate   =    -302.99432686 Ry
     estimated scf accuracy    <       0.00002060 Ry

     iteration #  9     ecut=    40.00 Ry     beta=0.30
     Davidson diagonalization with overlap
     ethr =  4.29E-08,  avg # of iterations =  2.0

     total cpu time spent up to now is     1494.3 secs

     total energy              =    -302.99431758 Ry
     Harris-Foulkes estimate   =    -302.99431839 Ry
     estimated scf accuracy    <       0.00000192 Ry

     iteration # 10     ecut=    40.00 Ry     beta=0.30
     Davidson diagonalization with overlap
     ethr =  4.00E-09,  avg # of iterations =  2.0

     total cpu time spent up to now is     1556.8 secs

     End of self-consistent calculation

     Number of k-points >= 100: set verbosity='high' to print the bands.

!    total energy              =    -302.99431769 Ry
     Harris-Foulkes estimate   =    -302.99431779 Ry
     estimated scf accuracy    <       0.00000028 Ry

     The total energy is the sum of the following terms:

     one-electron contribution =    -105.77493683 Ry
     hartree contribution      =      63.14244602 Ry
     xc contribution           =     -47.07198990 Ry
     ewald contribution        =    -213.28983698 Ry

     convergence has been achieved in  10 iterations

     Forces acting on atoms (Ry/au):

     atom    1 type  2   force =     0.00272161   -0.00071158    0.00434411
     atom    2 type  2   force =    -0.00372405    0.00035677    0.00361937
     atom    3 type  2   force =     0.00434987   -0.00035544   -0.00518955
     atom    4 type  2   force =    -0.00349414    0.00071743   -0.00460599
     atom    5 type  1   force =    -0.00183794    0.00004860    0.00024229
     atom    6 type  1   force =     0.00174880   -0.00008029   -0.00019766
     atom    7 type  1   force =    -0.00168317    0.00007897   -0.00004429
     atom    8 type  1   force =     0.00150545   -0.00005200    0.00431439
     atom    9 type  1   force =     0.00026283    0.00001722    0.00505218
     atom   10 type  1   force =    -0.00042445   -0.00002476    0.00506081
     atom   11 type  1   force =     0.00084735    0.00002369   -0.00752017
     atom   12 type  1   force =    -0.00027217   -0.00001861   -0.00507549

     Total force =     0.017279     Total SCF correction =     0.000316


     entering subroutine stress ...

          total   stress  (Ry/bohr**3)                   (kbar)     P=  121.40
   0.00079037   0.00000022  -0.00000408        116.27      0.03     -0.60
   0.00000022   0.00084028   0.00000022          0.03    123.61      0.03
  -0.00000408   0.00000022   0.00084514         -0.60      0.03    124.32


     number of scf cycles    =   2
     number of bfgs steps    =   1

     enthalpy old            =    -301.0243271452 Ry
     enthalpy new            =    -301.2525675558 Ry

     CASE: enthalpy_new < enthalpy_old

     new trust radius        =       0.3923420939 bohr
     new conv_thr            =       0.0000000752 Ry

     new unit-cell volume =    697.51492 a.u.^3 (   103.36105 Ang^3 )

CELL_PARAMETERS (alat= 11.28030000)
   0.886923509   0.000012233  -0.000241428
   0.000007395   0.537423309   0.000006853
  -0.000276803   0.000012996   1.019503971

ATOMIC_POSITIONS (crystal)
Ca       0.240486684   0.249607748   0.110585684
Ca       0.259149035  -0.249783535   0.610389072
Ca       0.741001862   0.249783914   0.389193095
Ca      -0.240677521  -0.249605776  -0.110607874
H        0.355309131   0.250015475   0.426605949
H        0.144658029  -0.250025414   0.926486561
H        0.855359003   0.250024977   0.073454209
H       -0.355407215  -0.250016572  -0.428531027
H        0.975439323   0.250005460   0.677338182
H       -0.475488829  -0.250008053   1.177336717
H        1.475610553   0.250007698  -0.174914153
H       -0.975440057  -0.250005920  -0.677336415



     Writing output data file CaH2_ambient.save
     NEW-OLD atomic charge density approx. for the potential
     NEW k-points: (use verbosity='high' to print them)
     extrapolated charge   39.02229, renormalised to   48.00000

     total cpu time spent up to now is     1651.8 secs

     per-process dynamical memory:    23.0 Mb

     Self-consistent Calculation

     iteration #  1     ecut=    40.00 Ry     beta=0.30
     Davidson diagonalization with overlap
     ethr =  1.00E-06,  avg # of iterations =  7.1

     total cpu time spent up to now is     1824.2 secs

     total energy              =    -301.91911334 Ry
     Harris-Foulkes estimate   =    -311.67257734 Ry
     estimated scf accuracy    <       2.86488188 Ry

     iteration #  2     ecut=    40.00 Ry     beta=0.30
     Davidson diagonalization with overlap
     ethr =  5.97E-03,  avg # of iterations =  2.0

     total cpu time spent up to now is     1906.1 secs

     total energy              =    -302.83785821 Ry
     Harris-Foulkes estimate   =    -302.96436768 Ry
     estimated scf accuracy    <       0.40014856 Ry

     iteration #  3     ecut=    40.00 Ry     beta=0.30
     Davidson diagonalization with overlap
     ethr =  8.34E-04,  avg # of iterations =  1.0

     total cpu time spent up to now is     1958.2 secs

     total energy              =    -302.70646056 Ry
     Harris-Foulkes estimate   =    -302.84844083 Ry
     estimated scf accuracy    <       0.18318405 Ry

     iteration #  4     ecut=    40.00 Ry     beta=0.30
     Davidson diagonalization with overlap
     ethr =  3.82E-04,  avg # of iterations =  2.0

     total cpu time spent up to now is     2041.3 secs

     total energy              =    -302.75550586 Ry
     Harris-Foulkes estimate   =    -302.75816104 Ry
     estimated scf accuracy    <       0.01508029 Ry

     iteration #  5     ecut=    40.00 Ry     beta=0.30
     Davidson diagonalization with overlap
     ethr =  3.14E-05,  avg # of iterations =  1.0

     total cpu time spent up to now is     2093.5 secs

     total energy              =    -302.75523800 Ry
     Harris-Foulkes estimate   =    -302.75599555 Ry
     estimated scf accuracy    <       0.00105768 Ry

     iteration #  6     ecut=    40.00 Ry     beta=0.30
     Davidson diagonalization with overlap
     ethr =  2.20E-06,  avg # of iterations =  2.1

     total cpu time spent up to now is     2177.5 secs

     total energy              =    -302.75566475 Ry
     Harris-Foulkes estimate   =    -302.75571278 Ry
     estimated scf accuracy    <       0.00032283 Ry

     iteration #  7     ecut=    40.00 Ry     beta=0.30
     Davidson diagonalization with overlap
     ethr =  6.73E-07,  avg # of iterations =  1.0

     total cpu time spent up to now is     2232.3 secs

     total energy              =    -302.75556037 Ry
     Harris-Foulkes estimate   =    -302.75566742 Ry
     estimated scf accuracy    <       0.00021091 Ry

     iteration #  8     ecut=    40.00 Ry     beta=0.30
     Davidson diagonalization with overlap
     ethr =  4.39E-07,  avg # of iterations =  2.0

     total cpu time spent up to now is     2303.9 secs

     total energy              =    -302.75559208 Ry
     Harris-Foulkes estimate   =    -302.75559279 Ry
     estimated scf accuracy    <       0.00000202 Ry

     iteration #  9     ecut=    40.00 Ry     beta=0.30
     Davidson diagonalization with overlap
     ethr =  4.21E-09,  avg # of iterations =  3.0

     total cpu time spent up to now is     2372.3 secs

     total energy              =    -302.75559359 Ry
     Harris-Foulkes estimate   =    -302.75559279 Ry
     estimated scf accuracy    <       0.00000032 Ry

     iteration # 10     ecut=    40.00 Ry     beta=0.30
     Davidson diagonalization with overlap
     ethr =  6.73E-10,  avg # of iterations =  2.1

     total cpu time spent up to now is     2454.9 secs

     total energy              =    -302.75559257 Ry
     Harris-Foulkes estimate   =    -302.75559380 Ry
     estimated scf accuracy    <       0.00000175 Ry

     iteration # 11     ecut=    40.00 Ry     beta=0.30
     Davidson diagonalization with overlap
     ethr =  6.73E-10,  avg # of iterations =  2.3

     total cpu time spent up to now is     2540.3 secs

     End of self-consistent calculation

     Number of k-points >= 100: set verbosity='high' to print the bands.

!    total energy              =    -302.75559294 Ry
     Harris-Foulkes estimate   =    -302.75559294 Ry
     estimated scf accuracy    <          8.1E-09 Ry

     The total energy is the sum of the following terms:

     one-electron contribution =     -83.28160791 Ry
     hartree contribution      =      56.49652888 Ry
     xc contribution           =     -47.76545415 Ry
     ewald contribution        =    -228.20505976 Ry

     convergence has been achieved in  11 iterations

     Forces acting on atoms (Ry/au):

     atom    1 type  2   force =     0.00800026   -0.00024842    0.01061388
     atom    2 type  2   force =    -0.00773654   -0.00009113    0.01080253
     atom    3 type  2   force =     0.00817901    0.00009873   -0.01081377
     atom    4 type  2   force =    -0.00861369    0.00026998   -0.01138953
     atom    5 type  1   force =    -0.00450082    0.00015738    0.00055712
     atom    6 type  1   force =     0.00477334   -0.00027577    0.00028624
     atom    7 type  1   force =    -0.00474129    0.00026950   -0.00078341
     atom    8 type  1   force =     0.00454424   -0.00016680    0.00355830
     atom    9 type  1   force =     0.00031867    0.00009169    0.01347171
     atom   10 type  1   force =    -0.00034495   -0.00012713    0.01345989
     atom   11 type  1   force =     0.00046699    0.00012159   -0.01608076
     atom   12 type  1   force =    -0.00034521   -0.00009962   -0.01368220

     Total force =     0.040623     Total SCF correction =     0.000055


     entering subroutine stress ...

          total   stress  (Ry/bohr**3)                   (kbar)     P=  360.13
   0.00232596   0.00000048  -0.00000558        342.16      0.07     -0.82
   0.00000048   0.00248675   0.00000073          0.07    365.81      0.11
  -0.00000558   0.00000073   0.00253159         -0.82      0.11    372.41


     number of scf cycles    =   3
     number of bfgs steps    =   2

     enthalpy old            =    -301.2525675558 Ry
     enthalpy new            =    -301.3331096762 Ry

     CASE: enthalpy_new < enthalpy_old

     new trust radius        =       0.0874631472 bohr
     new conv_thr            =       0.0000001608 Ry

     new unit-cell volume =    729.97201 a.u.^3 (   108.17069 Ang^3 )

CELL_PARAMETERS (alat= 11.28030000)
   0.898849639   0.000018159  -0.000299886
   0.000010982   0.545928852   0.000012752
  -0.000344468   0.000024190   1.036385223

ATOMIC_POSITIONS (crystal)
Ca       0.240913280   0.249609008   0.111066668
Ca       0.258760634  -0.249805973   0.610894635
Ca       0.741403069   0.249807075   0.388717836
Ca      -0.241124042  -0.249605072  -0.111125056
H        0.355075869   0.250029597   0.426631214
H        0.144909938  -0.250050347   0.926505845
H        0.855107572   0.250049323   0.073413089
H       -0.355163848  -0.250031517  -0.428426143
H        0.975452524   0.250014129   0.677958215
H       -0.475500432  -0.250020000   1.177955943
H        1.475620095   0.250019120  -0.175625015
H       -0.975454660  -0.250015342  -0.677967230



     Writing output data file CaH2_ambient.save
     NEW-OLD atomic charge density approx. for the potential
     NEW k-points: (use verbosity='high' to print them)
     extrapolated charge   49.77854, renormalised to   48.00000

     total cpu time spent up to now is     2633.6 secs

     per-process dynamical memory:    23.0 Mb

     Self-consistent Calculation

     iteration #  1     ecut=    40.00 Ry     beta=0.30
     Davidson diagonalization with overlap
     ethr =  1.00E-06,  avg # of iterations =  4.1

     total cpu time spent up to now is     2776.6 secs

     total energy              =    -302.77268255 Ry
     Harris-Foulkes estimate   =    -300.79413068 Ry
     estimated scf accuracy    <       0.07542824 Ry

     iteration #  2     ecut=    40.00 Ry     beta=0.30
     Davidson diagonalization with overlap
     ethr =  1.57E-04,  avg # of iterations =  2.0

     total cpu time spent up to now is     2859.6 secs

     total energy              =    -302.82893986 Ry
     Harris-Foulkes estimate   =    -302.82939278 Ry
     estimated scf accuracy    <       0.00238955 Ry

     iteration #  3     ecut=    40.00 Ry     beta=0.30
     Davidson diagonalization with overlap
     ethr =  4.98E-06,  avg # of iterations =  1.1

     total cpu time spent up to now is     2912.5 secs

     total energy              =    -302.82814087 Ry
     Harris-Foulkes estimate   =    -302.82900578 Ry
     estimated scf accuracy    <       0.00147760 Ry

     iteration #  4     ecut=    40.00 Ry     beta=0.30
     Davidson diagonalization with overlap
     ethr =  3.08E-06,  avg # of iterations =  2.0

     total cpu time spent up to now is     2978.4 secs

     total energy              =    -302.82837976 Ry
     Harris-Foulkes estimate   =    -302.82838304 Ry
     estimated scf accuracy    <       0.00005925 Ry

     iteration #  5     ecut=    40.00 Ry     beta=0.30
     Davidson diagonalization with overlap
     ethr =  1.23E-07,  avg # of iterations =  1.4

     total cpu time spent up to now is     3032.2 secs

     total energy              =    -302.82838087 Ry
     Harris-Foulkes estimate   =    -302.82838291 Ry
     estimated scf accuracy    <       0.00002358 Ry

     iteration #  6     ecut=    40.00 Ry     beta=0.30
     Davidson diagonalization with overlap
     ethr =  4.91E-08,  avg # of iterations =  2.0

     total cpu time spent up to now is     3096.3 secs

     total energy              =    -302.82838237 Ry
     Harris-Foulkes estimate   =    -302.82838283 Ry
     estimated scf accuracy    <       0.00000090 Ry

     iteration #  7     ecut=    40.00 Ry     beta=0.30
     Davidson diagonalization with overlap
     ethr =  1.87E-09,  avg # of iterations =  2.2

     total cpu time spent up to now is     3175.7 secs

     End of self-consistent calculation

     Number of k-points >= 100: set verbosity='high' to print the bands.

!    total energy              =    -302.82838260 Ry
     Harris-Foulkes estimate   =    -302.82838259 Ry
     estimated scf accuracy    <       0.00000014 Ry

     The total energy is the sum of the following terms:

     one-electron contribution =     -88.41488127 Ry
     hartree contribution      =      57.96721085 Ry
     xc contribution           =     -47.59788874 Ry
     ewald contribution        =    -224.78282344 Ry

     convergence has been achieved in   7 iterations

     Forces acting on atoms (Ry/au):

     atom    1 type  2   force =     0.00578757   -0.00046256    0.00633432
     atom    2 type  2   force =    -0.00573375   -0.00003671    0.00640552
     atom    3 type  2   force =     0.00599921    0.00004300   -0.00656694
     atom    4 type  2   force =    -0.00618444    0.00048512   -0.00682310
     atom    5 type  1   force =    -0.00402195    0.00011073    0.00157393
     atom    6 type  1   force =     0.00418692   -0.00021402    0.00128643
     atom    7 type  1   force =    -0.00418887    0.00020817   -0.00170861
     atom    8 type  1   force =     0.00404714   -0.00011941    0.00202289
     atom    9 type  1   force =    -0.00018433    0.00006605    0.01040736
     atom   10 type  1   force =     0.00019589   -0.00010106    0.01039603
     atom   11 type  1   force =    -0.00008850    0.00009517   -0.01275925
     atom   12 type  1   force =     0.00018511   -0.00007447   -0.01056859

     Total force =     0.029695     Total SCF correction =     0.000275


     entering subroutine stress ...

          total   stress  (Ry/bohr**3)                   (kbar)     P=  292.96
   0.00190988   0.00000028  -0.00000329        280.95      0.04     -0.48
   0.00000028   0.00200831   0.00000058          0.04    295.43      0.09
  -0.00000329   0.00000058   0.00205624         -0.48      0.09    302.48


     number of scf cycles    =   4
     number of bfgs steps    =   3

     enthalpy old            =    -301.3331096762 Ry
     enthalpy new            =    -301.3397076926 Ry

     CASE: enthalpy_new < enthalpy_old

     new trust radius        =       0.0170924670 bohr
     new conv_thr            =       0.0000001276 Ry

     new unit-cell volume =    727.45753 a.u.^3 (   107.79808 Ang^3 )

CELL_PARAMETERS (alat= 11.28030000)
   0.896007490   0.000024477  -0.000375196
   0.000014807   0.545548404   0.000020306
  -0.000431486   0.000038529   1.036813975

ATOMIC_POSITIONS (crystal)
Ca       0.241410931   0.249545144   0.111558217
Ca       0.258265912  -0.249810090   0.611390825
Ca       0.741922239   0.249812073   0.388207628
Ca      -0.241657566  -0.249538109  -0.111654076
H        0.354737069   0.250045471   0.426739759
H        0.145262788  -0.250080654   0.926592561
H        0.854754953   0.250078817   0.073294871
H       -0.354823714  -0.250048589  -0.428262274
H        0.975440979   0.250023571   0.678738747
H       -0.475489154  -0.250034210   1.178735647
H        1.475618812   0.250032514  -0.176582153
H       -0.975443249  -0.250025939  -0.678759751



     Writing output data file CaH2_ambient.save
     NEW-OLD atomic charge density approx. for the potential
     NEW k-points: (use verbosity='high' to print them)
     extrapolated charge   47.86174, renormalised to   48.00000

     total cpu time spent up to now is     3269.9 secs

     per-process dynamical memory:    23.0 Mb

     Self-consistent Calculation

     iteration #  1     ecut=    40.00 Ry     beta=0.30
     Davidson diagonalization with overlap
     ethr =  1.00E-06,  avg # of iterations =  4.0

     total cpu time spent up to now is     3401.5 secs

     total energy              =    -302.82395869 Ry
     Harris-Foulkes estimate   =    -302.97929232 Ry
     estimated scf accuracy    <       0.00048849 Ry

     iteration #  2     ecut=    40.00 Ry     beta=0.30
     Davidson diagonalization with overlap
     ethr =  1.02E-06,  avg # of iterations =  2.0

     total cpu time spent up to now is     3486.7 secs

     total energy              =    -302.82427516 Ry
     Harris-Foulkes estimate   =    -302.82428091 Ry
     estimated scf accuracy    <       0.00003580 Ry

     iteration #  3     ecut=    40.00 Ry     beta=0.30
     Davidson diagonalization with overlap
     ethr =  7.46E-08,  avg # of iterations =  1.0

     total cpu time spent up to now is     3539.9 secs

     total energy              =    -302.82426602 Ry
     Harris-Foulkes estimate   =    -302.82427576 Ry
     estimated scf accuracy    <       0.00002022 Ry

     iteration #  4     ecut=    40.00 Ry     beta=0.30
     Davidson diagonalization with overlap
     ethr =  4.21E-08,  avg # of iterations =  2.0

     total cpu time spent up to now is     3604.5 secs

     total energy              =    -302.82426865 Ry
     Harris-Foulkes estimate   =    -302.82426864 Ry
     estimated scf accuracy    <       0.00000059 Ry

     iteration #  5     ecut=    40.00 Ry     beta=0.30
     Davidson diagonalization with overlap
     ethr =  1.22E-09,  avg # of iterations =  2.0

     total cpu time spent up to now is     3660.7 secs

     total energy              =    -302.82426868 Ry
     Harris-Foulkes estimate   =    -302.82426869 Ry
     estimated scf accuracy    <       0.00000015 Ry

     iteration #  6     ecut=    40.00 Ry     beta=0.30
     Davidson diagonalization with overlap
     ethr =  3.16E-10,  avg # of iterations =  2.0

     total cpu time spent up to now is     3725.9 secs

     End of self-consistent calculation

     Number of k-points >= 100: set verbosity='high' to print the bands.

!    total energy              =    -302.82426869 Ry
     Harris-Foulkes estimate   =    -302.82426869 Ry
     estimated scf accuracy    <          7.1E-09 Ry

     The total energy is the sum of the following terms:

     one-electron contribution =     -87.99690668 Ry
     hartree contribution      =      57.83558180 Ry
     xc contribution           =     -47.60807574 Ry
     ewald contribution        =    -225.05486808 Ry

     convergence has been achieved in   6 iterations

     Forces acting on atoms (Ry/au):

     atom    1 type  2   force =     0.00530644   -0.00047845    0.00455618
     atom    2 type  2   force =    -0.00513928   -0.00007518    0.00470598
     atom    3 type  2   force =     0.00522447    0.00007973   -0.00463442
     atom    4 type  2   force =    -0.00548284    0.00049459   -0.00488075
     atom    5 type  1   force =    -0.00421568    0.00009745    0.00223115
     atom    6 type  1   force =     0.00437564   -0.00022074    0.00197172
     atom    7 type  1   force =    -0.00441044    0.00021765   -0.00238232
     atom    8 type  1   force =     0.00429754   -0.00010381    0.00075542
     atom    9 type  1   force =    -0.00063475    0.00006733    0.00977602
     atom   10 type  1   force =     0.00069465   -0.00010970    0.00974802
     atom   11 type  1   force =    -0.00066915    0.00010578   -0.01191368
     atom   12 type  1   force =     0.00065340   -0.00007466   -0.00993333

     Total force =     0.026901     Total SCF correction =     0.000126


     entering subroutine stress ...

          total   stress  (Ry/bohr**3)                   (kbar)     P=  296.70
   0.00194470   0.00000016  -0.00000163        286.08      0.02     -0.24
   0.00000016   0.00202676   0.00000067          0.02    298.15      0.10
  -0.00000163   0.00000067   0.00207929         -0.24      0.10    305.87


     number of scf cycles    =   5
     number of bfgs steps    =   4

     enthalpy old            =    -301.3397076926 Ry
     enthalpy new            =    -301.3407217065 Ry

     CASE: enthalpy_new < enthalpy_old


     WARNING: bfgs curvature condition failed, Theta= 0.941
     new trust radius        =       0.0188288776 bohr
     new conv_thr            =       0.0000001014 Ry

     new unit-cell volume =    725.79625 a.u.^3 (   107.55191 Ang^3 )

CELL_PARAMETERS (alat= 11.28030000)
   0.892880839   0.000031131  -0.000446186
   0.000018841   0.545395841   0.000032779
  -0.000514207   0.000062201   1.038359052

ATOMIC_POSITIONS (crystal)
Ca       0.242100885   0.249448524   0.112138392
Ca       0.257591733  -0.249822770   0.611984991
Ca       0.742615309   0.249825802   0.387612872
Ca      -0.242379524  -0.249437835  -0.112276382
H        0.354218302   0.250066904   0.426955649
H        0.145801891  -0.250126501   0.926778558
H        0.854213066   0.250123869   0.073063175
H       -0.354297382  -0.250071449  -0.428126515
H        0.975381739   0.250037750   0.679843114
H       -0.475425742  -0.250056555   1.179837409
H        1.475562252   0.250053937  -0.177929654
H       -0.975382530  -0.250041676  -0.679881610



     Writing output data file CaH2_ambient.save
     NEW-OLD atomic charge density approx. for the potential
     NEW k-points: (use verbosity='high' to print them)
     extrapolated charge   47.90844, renormalised to   48.00000

     total cpu time spent up to now is     3822.2 secs

     per-process dynamical memory:    23.0 Mb

     Self-consistent Calculation

     iteration #  1     ecut=    40.00 Ry     beta=0.30
     Davidson diagonalization with overlap
     ethr =  1.00E-06,  avg # of iterations =  4.0

     total cpu time spent up to now is     3960.7 secs

     total energy              =    -302.82190173 Ry
     Harris-Foulkes estimate   =    -302.92434114 Ry
     estimated scf accuracy    <       0.00024063 Ry

     iteration #  2     ecut=    40.00 Ry     beta=0.30
     Davidson diagonalization with overlap
     ethr =  5.01E-07,  avg # of iterations =  2.0

     total cpu time spent up to now is     4048.3 secs

     total energy              =    -302.82203776 Ry
     Harris-Foulkes estimate   =    -302.82204241 Ry
     estimated scf accuracy    <       0.00003802 Ry

     iteration #  3     ecut=    40.00 Ry     beta=0.30
     Davidson diagonalization with overlap
     ethr =  7.92E-08,  avg # of iterations =  1.0

     total cpu time spent up to now is     4101.7 secs

     total energy              =    -302.82203055 Ry
     Harris-Foulkes estimate   =    -302.82203814 Ry
     estimated scf accuracy    <       0.00002065 Ry

     iteration #  4     ecut=    40.00 Ry     beta=0.30
     Davidson diagonalization with overlap
     ethr =  4.30E-08,  avg # of iterations =  2.0

     total cpu time spent up to now is     4166.6 secs

     total energy              =    -302.82203265 Ry
     Harris-Foulkes estimate   =    -302.82203257 Ry
     estimated scf accuracy    <       0.00000034 Ry

     iteration #  5     ecut=    40.00 Ry     beta=0.30
     Davidson diagonalization with overlap
     ethr =  7.05E-10,  avg # of iterations =  2.0

     total cpu time spent up to now is     4229.7 secs

     total energy              =    -302.82203266 Ry
     Harris-Foulkes estimate   =    -302.82203268 Ry
     estimated scf accuracy    <       0.00000011 Ry

     iteration #  6     ecut=    40.00 Ry     beta=0.30
     Davidson diagonalization with overlap
     ethr =  2.20E-10,  avg # of iterations =  2.0

     total cpu time spent up to now is     4294.9 secs

     End of self-consistent calculation

     Number of k-points >= 100: set verbosity='high' to print the bands.

!    total energy              =    -302.82203267 Ry
     Harris-Foulkes estimate   =    -302.82203267 Ry
     estimated scf accuracy    <          7.2E-09 Ry

     The total energy is the sum of the following terms:

     one-electron contribution =     -87.70148552 Ry
     hartree contribution      =      57.73618927 Ry
     xc contribution           =     -47.61345958 Ry
     ewald contribution        =    -225.24327684 Ry

     convergence has been achieved in   6 iterations

     Forces acting on atoms (Ry/au):

     atom    1 type  2   force =     0.00467158   -0.00045114    0.00243573
     atom    2 type  2   force =    -0.00436732   -0.00010818    0.00259904
     atom    3 type  2   force =     0.00426111    0.00010975   -0.00230774
     atom    4 type  2   force =    -0.00460290    0.00044994   -0.00252979
     atom    5 type  1   force =    -0.00441889    0.00007786    0.00279739
     atom    6 type  1   force =     0.00455901   -0.00022819    0.00259691
     atom    7 type  1   force =    -0.00462501    0.00023090   -0.00294907
     atom    8 type  1   force =     0.00454905   -0.00007905   -0.00060169
     atom    9 type  1   force =    -0.00120311    0.00006783    0.00881036
     atom   10 type  1   force =     0.00130944   -0.00011927    0.00877596
     atom   11 type  1   force =    -0.00137286    0.00012054   -0.01067096
     atom   12 type  1   force =     0.00123991   -0.00007099   -0.00895615

     Total force =     0.023803     Total SCF correction =     0.000186


     entering subroutine stress ...

          total   stress  (Ry/bohr**3)                   (kbar)     P=  298.58
   0.00196985   0.00000002   0.00000026        289.77      0.00      0.04
   0.00000002   0.00203442   0.00000080          0.00    299.27      0.12
   0.00000026   0.00000080   0.00208493          0.04      0.12    306.70


     number of scf cycles    =   6
     number of bfgs steps    =   5

     enthalpy old            =    -301.3407217065 Ry
     enthalpy new            =    -301.3418736390 Ry

     CASE: enthalpy_new < enthalpy_old

     new trust radius        =       0.0283098673 bohr
     new conv_thr            =       0.0000001067 Ry

     new unit-cell volume =    723.95762 a.u.^3 (   107.27945 Ang^3 )

CELL_PARAMETERS (alat= 11.28030000)
   0.888190057   0.000038072  -0.000509606
   0.000023077   0.545305685   0.000057584
  -0.000590115   0.000109249   1.041370829

ATOMIC_POSITIONS (crystal)
Ca       0.243246632   0.249282518   0.112929519
Ca       0.256492380  -0.249852712   0.612802465
Ca       0.743723488   0.249856971   0.386819633
Ca      -0.243550489  -0.249269125  -0.113116173
H        0.353268033   0.250100861   0.427406026
H        0.146785627  -0.250209838   0.927182438
H        0.853220356   0.250207055   0.072584652
H       -0.353327357  -0.250106811  -0.428040559
H        0.975202305   0.250063154   0.681703529
H       -0.475232916  -0.250098431   1.181692466
H        1.475370065   0.250095298  -0.180192063
H       -0.975198124  -0.250068940  -0.681771932



     Writing output data file CaH2_ambient.save
     NEW-OLD atomic charge density approx. for the potential
     NEW k-points: (use verbosity='high' to print them)
     extrapolated charge   47.89841, renormalised to   48.00000

     total cpu time spent up to now is     4389.2 secs

     per-process dynamical memory:    23.0 Mb

     Self-consistent Calculation

     iteration #  1     ecut=    40.00 Ry     beta=0.30
     Davidson diagonalization with overlap
     ethr =  1.00E-06,  avg # of iterations =  4.0

     total cpu time spent up to now is     4535.4 secs

     total energy              =    -302.81967767 Ry
     Harris-Foulkes estimate   =    -302.93283094 Ry
     estimated scf accuracy    <       0.00036544 Ry

     iteration #  2     ecut=    40.00 Ry     beta=0.30
     Davidson diagonalization with overlap
     ethr =  7.61E-07,  avg # of iterations =  2.0

     total cpu time spent up to now is     4620.7 secs

     total energy              =    -302.81983885 Ry
     Harris-Foulkes estimate   =    -302.81985036 Ry
     estimated scf accuracy    <       0.00009547 Ry

     iteration #  3     ecut=    40.00 Ry     beta=0.30
     Davidson diagonalization with overlap
     ethr =  1.99E-07,  avg # of iterations =  1.0

     total cpu time spent up to now is     4676.2 secs

     total energy              =    -302.81982247 Ry
     Harris-Foulkes estimate   =    -302.81983958 Ry
     estimated scf accuracy    <       0.00005006 Ry

     iteration #  4     ecut=    40.00 Ry     beta=0.30
     Davidson diagonalization with overlap
     ethr =  1.04E-07,  avg # of iterations =  2.0

     total cpu time spent up to now is     4740.1 secs

     total energy              =    -302.81982704 Ry
     Harris-Foulkes estimate   =    -302.81982681 Ry
     estimated scf accuracy    <       0.00000063 Ry

     iteration #  5     ecut=    40.00 Ry     beta=0.30
     Davidson diagonalization with overlap
     ethr =  1.31E-09,  avg # of iterations =  2.0

     total cpu time spent up to now is     4805.8 secs

     total energy              =    -302.81982706 Ry
     Harris-Foulkes estimate   =    -302.81982711 Ry
     estimated scf accuracy    <       0.00000024 Ry

     iteration #  6     ecut=    40.00 Ry     beta=0.30
     Davidson diagonalization with overlap
     ethr =  4.98E-10,  avg # of iterations =  2.0

     total cpu time spent up to now is     4869.0 secs

     End of self-consistent calculation

     Number of k-points >= 100: set verbosity='high' to print the bands.

!    total energy              =    -302.81982708 Ry
     Harris-Foulkes estimate   =    -302.81982708 Ry
     estimated scf accuracy    <       0.00000002 Ry

     The total energy is the sum of the following terms:

     one-electron contribution =     -87.35799952 Ry
     hartree contribution      =      57.61482653 Ry
     xc contribution           =     -47.61794876 Ry
     ewald contribution        =    -225.45870533 Ry

     convergence has been achieved in   6 iterations

     Forces acting on atoms (Ry/au):

     atom    1 type  2   force =     0.00370536   -0.00029686   -0.00042681
     atom    2 type  2   force =    -0.00323410   -0.00012495   -0.00028017
     atom    3 type  2   force =     0.00291038    0.00012341    0.00082368
     atom    4 type  2   force =    -0.00333386    0.00026092    0.00066299
     atom    5 type  1   force =    -0.00467481    0.00004656    0.00321513
     atom    6 type  1   force =     0.00476497   -0.00023229    0.00313416
     atom    7 type  1   force =    -0.00486282    0.00024436   -0.00334002
     atom    8 type  1   force =     0.00484150   -0.00003815   -0.00221328
     atom    9 type  1   force =    -0.00200865    0.00006604    0.00725099
     atom   10 type  1   force =     0.00215888   -0.00013121    0.00722668
     atom   11 type  1   force =    -0.00232764    0.00014222   -0.00868444
     atom   12 type  1   force =     0.00206079   -0.00006006   -0.00736892

     Total force =     0.020646     Total SCF correction =     0.000336


     entering subroutine stress ...

          total   stress  (Ry/bohr**3)                   (kbar)     P=  300.03
   0.00199720  -0.00000021   0.00000268        293.80     -0.03      0.39
  -0.00000021   0.00204254   0.00000094         -0.03    300.47      0.14
   0.00000268   0.00000094   0.00207887          0.39      0.14    305.81


     number of scf cycles    =   7
     number of bfgs steps    =   6

     enthalpy old            =    -301.3418736390 Ry
     enthalpy new            =    -301.3434176703 Ry

     CASE: enthalpy_new < enthalpy_old

     new trust radius        =       0.0426349836 bohr
     new conv_thr            =       0.0000000868 Ry

     new unit-cell volume =    721.55738 a.u.^3 (   106.92377 Ang^3 )

CELL_PARAMETERS (alat= 11.28030000)
   0.881168347   0.000041275  -0.000526288
   0.000025149   0.545306555   0.000102927
  -0.000616754   0.000195138   1.046187395

ATOMIC_POSITIONS (crystal)
Ca       0.245057877   0.249037059   0.113907790
Ca       0.254784832  -0.249907948   0.613823411
Ca       0.745414636   0.249913563   0.385872722
Ca      -0.245360925  -0.249027552  -0.114134709
H        0.351611485   0.250151163   0.428230299
H        0.148491684  -0.250352958   0.927942773
H        0.851494406   0.250352201   0.071715963
H       -0.351631859  -0.250157169  -0.428103440
H        0.974779562   0.250106081   0.684679937
H       -0.474780927  -0.250172728   1.184660985
H        1.474903936   0.250171091  -0.183799910
H       -0.974764707  -0.250112803  -0.684795819



     Writing output data file CaH2_ambient.save
     NEW-OLD atomic charge density approx. for the potential
     NEW k-points: (use verbosity='high' to print them)
     extrapolated charge   47.86694, renormalised to   48.00000

     total cpu time spent up to now is     4963.9 secs

     per-process dynamical memory:    23.0 Mb

     Self-consistent Calculation

     iteration #  1     ecut=    40.00 Ry     beta=0.30
     Davidson diagonalization with overlap
     ethr =  1.00E-06,  avg # of iterations =  4.6

     total cpu time spent up to now is     5117.6 secs

     total energy              =    -302.81643994 Ry
     Harris-Foulkes estimate   =    -302.96376829 Ry
     estimated scf accuracy    <       0.00075048 Ry

     iteration #  2     ecut=    40.00 Ry     beta=0.30
     Davidson diagonalization with overlap
     ethr =  1.56E-06,  avg # of iterations =  2.0

     total cpu time spent up to now is     5204.6 secs

     total energy              =    -302.81670302 Ry
     Harris-Foulkes estimate   =    -302.81673501 Ry
     estimated scf accuracy    <       0.00024611 Ry

     iteration #  3     ecut=    40.00 Ry     beta=0.30
     Davidson diagonalization with overlap
     ethr =  5.13E-07,  avg # of iterations =  1.0

     total cpu time spent up to now is     5260.4 secs

     total energy              =    -302.81666223 Ry
     Harris-Foulkes estimate   =    -302.81670476 Ry
     estimated scf accuracy    <       0.00012437 Ry

     iteration #  4     ecut=    40.00 Ry     beta=0.30
     Davidson diagonalization with overlap
     ethr =  2.59E-07,  avg # of iterations =  2.0

     total cpu time spent up to now is     5326.1 secs

     total energy              =    -302.81667294 Ry
     Harris-Foulkes estimate   =    -302.81667243 Ry
     estimated scf accuracy    <       0.00000138 Ry

     iteration #  5     ecut=    40.00 Ry     beta=0.30
     Davidson diagonalization with overlap
     ethr =  2.87E-09,  avg # of iterations =  2.0

     total cpu time spent up to now is     5391.8 secs

     total energy              =    -302.81667301 Ry
     Harris-Foulkes estimate   =    -302.81667311 Ry
     estimated scf accuracy    <       0.00000055 Ry

     iteration #  6     ecut=    40.00 Ry     beta=0.30
     Davidson diagonalization with overlap
     ethr =  1.15E-09,  avg # of iterations =  2.0

     total cpu time spent up to now is     5454.7 secs

     End of self-consistent calculation

     Number of k-points >= 100: set verbosity='high' to print the bands.

!    total energy              =    -302.81667305 Ry
     Harris-Foulkes estimate   =    -302.81667306 Ry
     estimated scf accuracy    <       0.00000004 Ry

     The total energy is the sum of the following terms:

     one-electron contribution =     -86.90176052 Ry
     hartree contribution      =      57.44978947 Ry
     xc contribution           =     -47.62261316 Ry
     ewald contribution        =    -225.74208884 Ry

     convergence has been achieved in   6 iterations

     Forces acting on atoms (Ry/au):

     atom    1 type  2   force =     0.00221423    0.00010799   -0.00406711
     atom    2 type  2   force =    -0.00171629   -0.00008308   -0.00390956
     atom    3 type  2   force =     0.00117326    0.00007972    0.00465388
     atom    4 type  2   force =    -0.00152374   -0.00017169    0.00476037
     atom    5 type  1   force =    -0.00499725   -0.00000064    0.00316568
     atom    6 type  1   force =     0.00499536   -0.00021341    0.00330276
     atom    7 type  1   force =    -0.00511205    0.00023003   -0.00321686
     atom    8 type  1   force =     0.00517488    0.00001756   -0.00383723
     atom    9 type  1   force =    -0.00299731    0.00005367    0.00497760
     atom   10 type  1   force =     0.00316973   -0.00014184    0.00499621
     atom   11 type  1   force =    -0.00342738    0.00016015   -0.00578559
     atom   12 type  1   force =     0.00304656   -0.00003846   -0.00504015

     Total force =     0.019632     Total SCF correction =     0.000532


     entering subroutine stress ...

          total   stress  (Ry/bohr**3)                   (kbar)     P=  301.44
   0.00202898  -0.00000052   0.00000533        298.47     -0.08      0.78
  -0.00000052   0.00205821   0.00000090         -0.08    302.77      0.13
   0.00000533   0.00000090   0.00206029          0.78      0.13    303.08


     number of scf cycles    =   8
     number of bfgs steps    =   7

     enthalpy old            =    -301.3434176703 Ry
     enthalpy new            =    -301.3451585949 Ry

     CASE: enthalpy_new < enthalpy_old

     new trust radius        =       0.0642383445 bohr
     new conv_thr            =       0.0000000579 Ry

     new unit-cell volume =    718.55057 a.u.^3 (   106.47821 Ang^3 )

CELL_PARAMETERS (alat= 11.28030000)
   0.871273105   0.000030485  -0.000415049
   0.000019073   0.545687940   0.000176208
  -0.000506918   0.000333557   1.052923620

ATOMIC_POSITIONS (crystal)
Ca       0.247716777   0.248760437   0.114857200
Ca       0.252304570  -0.249987199   0.614843726
Ca       0.747824228   0.249994371   0.385011334
Ca      -0.247955164  -0.248766833  -0.115070241
H        0.348857392   0.250217881   0.429582607
H        0.151308962  -0.250580556   0.929227451
H        0.848640555   0.250584854   0.070303367
H       -0.348811235  -0.250221146  -0.428504650
H        0.973900792   0.250172307   0.689140164
H       -0.473848992  -0.250297258   1.189114993
H        1.473930706   0.250300609  -0.189181734
H       -0.973868592  -0.250177469  -0.689324217



     Writing output data file CaH2_ambient.save
     NEW-OLD atomic charge density approx. for the potential
     NEW k-points: (use verbosity='high' to print them)
     extrapolated charge   47.83262, renormalised to   48.00000

     total cpu time spent up to now is     5550.3 secs

     per-process dynamical memory:    23.0 Mb

     Self-consistent Calculation

     iteration #  1     ecut=    40.00 Ry     beta=0.30
     Davidson diagonalization with overlap
     ethr =  1.00E-06,  avg # of iterations =  5.0

     total cpu time spent up to now is     5705.2 secs

     total energy              =    -302.81166378 Ry
     Harris-Foulkes estimate   =    -302.99557457 Ry
     estimated scf accuracy    <       0.00147397 Ry

     iteration #  2     ecut=    40.00 Ry     beta=0.30
     Davidson diagonalization with overlap
     ethr =  3.07E-06,  avg # of iterations =  2.0

     total cpu time spent up to now is     5791.5 secs

     total energy              =    -302.81204649 Ry
     Harris-Foulkes estimate   =    -302.81212865 Ry
     estimated scf accuracy    <       0.00057578 Ry

     iteration #  3     ecut=    40.00 Ry     beta=0.30
     Davidson diagonalization with overlap
     ethr =  1.20E-06,  avg # of iterations =  1.0

     total cpu time spent up to now is     5845.9 secs

     total energy              =    -302.81195545 Ry
     Harris-Foulkes estimate   =    -302.81205048 Ry
     estimated scf accuracy    <       0.00027592 Ry

     iteration #  4     ecut=    40.00 Ry     beta=0.30
     Davidson diagonalization with overlap
     ethr =  5.75E-07,  avg # of iterations =  2.0

     total cpu time spent up to now is     5910.1 secs

     total energy              =    -302.81197784 Ry
     Harris-Foulkes estimate   =    -302.81197688 Ry
     estimated scf accuracy    <       0.00000271 Ry

     iteration #  5     ecut=    40.00 Ry     beta=0.30
     Davidson diagonalization with overlap
     ethr =  5.65E-09,  avg # of iterations =  2.0

     total cpu time spent up to now is     5976.2 secs

     total energy              =    -302.81197808 Ry
     Harris-Foulkes estimate   =    -302.81197818 Ry
     estimated scf accuracy    <       0.00000112 Ry

     iteration #  6     ecut=    40.00 Ry     beta=0.30
     Davidson diagonalization with overlap
     ethr =  2.33E-09,  avg # of iterations =  2.0

     total cpu time spent up to now is     6040.6 secs

     total energy              =    -302.81197816 Ry
     Harris-Foulkes estimate   =    -302.81197817 Ry
     estimated scf accuracy    <       0.00000008 Ry

     iteration #  7     ecut=    40.00 Ry     beta=0.30
     Davidson diagonalization with overlap
     ethr =  1.64E-10,  avg # of iterations =  2.0

     total cpu time spent up to now is     6098.6 secs

     End of self-consistent calculation

     Number of k-points >= 100: set verbosity='high' to print the bands.

!    total energy              =    -302.81197816 Ry
     Harris-Foulkes estimate   =    -302.81197817 Ry
     estimated scf accuracy    <       0.00000004 Ry

     The total energy is the sum of the following terms:

     one-electron contribution =     -86.32293667 Ry
     hartree contribution      =      57.23539304 Ry
     xc contribution           =     -47.62665630 Ry
     ewald contribution        =    -226.09777823 Ry

     convergence has been achieved in   7 iterations

     Forces acting on atoms (Ry/au):

     atom    1 type  2   force =     0.00000291    0.00065854   -0.00801445
     atom    2 type  2   force =     0.00001909    0.00007250   -0.00778581
     atom    3 type  2   force =    -0.00071011   -0.00007745    0.00852219
     atom    4 type  2   force =     0.00082798   -0.00068574    0.00916175
     atom    5 type  1   force =    -0.00537932   -0.00006439    0.00205671
     atom    6 type  1   force =     0.00525351   -0.00011998    0.00255003
     atom    7 type  1   force =    -0.00532861    0.00012145   -0.00196513
     atom    8 type  1   force =     0.00554265    0.00007640   -0.00473913
     atom    9 type  1   force =    -0.00386361    0.00001277    0.00206064
     atom   10 type  1   force =     0.00400643   -0.00012966    0.00215808
     atom   11 type  1   force =    -0.00424196    0.00013653   -0.00199051
     atom   12 type  1   force =     0.00387102   -0.00000097   -0.00201436

     Total force =     0.022742     Total SCF correction =     0.000505


     entering subroutine stress ...

          total   stress  (Ry/bohr**3)                   (kbar)     P=  302.54
   0.00205932  -0.00000082   0.00000699        302.94     -0.12      1.03
  -0.00000082   0.00208525   0.00000020         -0.12    306.75      0.03
   0.00000699   0.00000020   0.00202526          1.03      0.03    297.93


     number of scf cycles    =   9
     number of bfgs steps    =   8

     enthalpy old            =    -301.3451585949 Ry
     enthalpy new            =    -301.3465956673 Ry

     CASE: enthalpy_new < enthalpy_old

     new trust radius        =       0.0399859106 bohr
     new conv_thr            =       0.0000000916 Ry

     new unit-cell volume =    717.22654 a.u.^3 (   106.28201 Ang^3 )

CELL_PARAMETERS (alat= 11.28030000)
   0.865682645   0.000006689  -0.000218236
   0.000005377   0.546531236   0.000217120
  -0.000301188   0.000410184   1.056138323

ATOMIC_POSITIONS (crystal)
Ca       0.249259002   0.248710978   0.114837039
Ca       0.250845628  -0.250012796   0.614882818
Ca       0.749194218   0.250020427   0.385106842
Ca      -0.249405162  -0.248726238  -0.114957852
H        0.346804819   0.250247232   0.430468054
H        0.153386353  -0.250725216   0.930115796
H        0.846539026   0.250731243   0.069393447
H       -0.346709682  -0.250248290  -0.429037530
H        0.973085525   0.250210868   0.691896191
H       -0.472994880  -0.250386616   1.191876870
H        1.473040119   0.250392617  -0.192467060
H       -0.973044965  -0.250214209  -0.692114613



     Writing output data file CaH2_ambient.save
     NEW-OLD atomic charge density approx. for the potential
     NEW k-points: (use verbosity='high' to print them)
     extrapolated charge   47.92616, renormalised to   48.00000

     total cpu time spent up to now is     6194.5 secs

     per-process dynamical memory:    23.0 Mb

     Self-consistent Calculation

     iteration #  1     ecut=    40.00 Ry     beta=0.30
     Davidson diagonalization with overlap
     ethr =  1.00E-06,  avg # of iterations =  4.4

     total cpu time spent up to now is     6346.1 secs

     total energy              =    -302.80995044 Ry
     Harris-Foulkes estimate   =    -302.89069598 Ry
     estimated scf accuracy    <       0.00048316 Ry

     iteration #  2     ecut=    40.00 Ry     beta=0.30
     Davidson diagonalization with overlap
     ethr =  1.01E-06,  avg # of iterations =  2.0

     total cpu time spent up to now is     6421.7 secs

     total energy              =    -302.80999847 Ry
     Harris-Foulkes estimate   =    -302.81003958 Ry
     estimated scf accuracy    <       0.00023598 Ry

     iteration #  3     ecut=    40.00 Ry     beta=0.30
     Davidson diagonalization with overlap
     ethr =  4.92E-07,  avg # of iterations =  1.0

     total cpu time spent up to now is     6477.1 secs

     total energy              =    -302.80997023 Ry
     Harris-Foulkes estimate   =    -302.81000165 Ry
     estimated scf accuracy    <       0.00009151 Ry

     iteration #  4     ecut=    40.00 Ry     beta=0.30
     Davidson diagonalization with overlap
     ethr =  1.91E-07,  avg # of iterations =  2.0

     total cpu time spent up to now is     6543.5 secs

     total energy              =    -302.80997702 Ry
     Harris-Foulkes estimate   =    -302.80997678 Ry
     estimated scf accuracy    <       0.00000089 Ry

     iteration #  5     ecut=    40.00 Ry     beta=0.30
     Davidson diagonalization with overlap
     ethr =  1.85E-09,  avg # of iterations =  2.1

     total cpu time spent up to now is     6608.7 secs

     total energy              =    -302.80997716 Ry
     Harris-Foulkes estimate   =    -302.80997712 Ry
     estimated scf accuracy    <       0.00000035 Ry

     iteration #  6     ecut=    40.00 Ry     beta=0.30
     Davidson diagonalization with overlap
     ethr =  7.33E-10,  avg # of iterations =  2.0

     total cpu time spent up to now is     6672.0 secs

     End of self-consistent calculation

     Number of k-points >= 100: set verbosity='high' to print the bands.

!    total energy              =    -302.80997718 Ry
     Harris-Foulkes estimate   =    -302.80997718 Ry
     estimated scf accuracy    <       0.00000002 Ry

     The total energy is the sum of the following terms:

     one-electron contribution =     -86.04628394 Ry
     hartree contribution      =      57.12656991 Ry
     xc contribution           =     -47.62633822 Ry
     ewald contribution        =    -226.26392493 Ry

     convergence has been achieved in   6 iterations

     Forces acting on atoms (Ry/au):

     atom    1 type  2   force =    -0.00103641    0.00072638   -0.00866868
     atom    2 type  2   force =     0.00084655    0.00021152   -0.00853822
     atom    3 type  2   force =    -0.00142194   -0.00021878    0.00908117
     atom    4 type  2   force =     0.00164196   -0.00071599    0.00966946
     atom    5 type  1   force =    -0.00534546   -0.00008370    0.00054207
     atom    6 type  1   force =     0.00516339    0.00000726    0.00124631
     atom    7 type  1   force =    -0.00515204   -0.00001711   -0.00035246
     atom    8 type  1   force =     0.00547114    0.00009003   -0.00382944
     atom    9 type  1   force =    -0.00373538   -0.00002432    0.00073695
     atom   10 type  1   force =     0.00379536   -0.00007621    0.00086789
     atom   11 type  1   force =    -0.00392286    0.00007116   -0.00014830
     atom   12 type  1   force =     0.00369568    0.00002975   -0.00060676

     Total force =     0.022784     Total SCF correction =     0.000270


     entering subroutine stress ...

          total   stress  (Ry/bohr**3)                   (kbar)     P=  302.17
   0.00206104  -0.00000074   0.00000570        303.19     -0.11      0.84
  -0.00000074   0.00209944  -0.00000083         -0.11    308.84     -0.12
   0.00000570  -0.00000083   0.00200188          0.84     -0.12    294.49


     number of scf cycles    =  10
     number of bfgs steps    =   9

     enthalpy old            =    -301.3465956673 Ry
     enthalpy new            =    -301.3472948564 Ry

     CASE: enthalpy_new < enthalpy_old

     new trust radius        =       0.0441028393 bohr
     new conv_thr            =       0.0000000699 Ry

     new unit-cell volume =    716.03127 a.u.^3 (   106.10489 Ang^3 )

CELL_PARAMETERS (alat= 11.28030000)
   0.859799133  -0.000033700   0.000092034
  -0.000017861   0.548228884   0.000243850
   0.000024759   0.000459286   1.058305884

ATOMIC_POSITIONS (crystal)
Ca       0.250833020   0.248762998   0.114190095
Ca       0.249333787  -0.249999302   0.614305441
Ca       0.750573493   0.250006419   0.385857865
Ca      -0.250846964  -0.248782821  -0.114146294
H        0.344138260   0.250267006   0.431398673
H        0.156063346  -0.250872221   0.931109735
H        0.843841349   0.250877689   0.068454669
H       -0.343982737  -0.250265649  -0.429834724
H        0.971915602   0.250246735   0.694932401
H       -0.471782727  -0.250490399   1.194930958
H        1.471785338   0.250497516  -0.196023401
H       -0.971871766  -0.250247971  -0.695175417



     Writing output data file CaH2_ambient.save
     NEW-OLD atomic charge density approx. for the potential
     NEW k-points: (use verbosity='high' to print them)
     extrapolated charge   47.93323, renormalised to   48.00000

     total cpu time spent up to now is     6767.2 secs

     per-process dynamical memory:    23.0 Mb

     Self-consistent Calculation

     iteration #  1     ecut=    40.00 Ry     beta=0.30
     Davidson diagonalization with overlap
     ethr =  1.00E-06,  avg # of iterations =  4.5

     total cpu time spent up to now is     6922.0 secs

     total energy              =    -302.80845173 Ry
     Harris-Foulkes estimate   =    -302.88117662 Ry
     estimated scf accuracy    <       0.00059387 Ry

     iteration #  2     ecut=    40.00 Ry     beta=0.30
     Davidson diagonalization with overlap
     ethr =  1.24E-06,  avg # of iterations =  2.0

     total cpu time spent up to now is     6997.7 secs

     total energy              =    -302.80846296 Ry
     Harris-Foulkes estimate   =    -302.80852514 Ry
     estimated scf accuracy    <       0.00031493 Ry

     iteration #  3     ecut=    40.00 Ry     beta=0.30
     Davidson diagonalization with overlap
     ethr =  6.56E-07,  avg # of iterations =  1.0

     total cpu time spent up to now is     7053.6 secs

     total energy              =    -302.80843367 Ry
     Harris-Foulkes estimate   =    -302.80846750 Ry
     estimated scf accuracy    <       0.00009828 Ry

     iteration #  4     ecut=    40.00 Ry     beta=0.30
     Davidson diagonalization with overlap
     ethr =  2.05E-07,  avg # of iterations =  2.0

     total cpu time spent up to now is     7119.1 secs

     total energy              =    -302.80844100 Ry
     Harris-Foulkes estimate   =    -302.80844063 Ry
     estimated scf accuracy    <       0.00000102 Ry

     iteration #  5     ecut=    40.00 Ry     beta=0.30
     Davidson diagonalization with overlap
     ethr =  2.13E-09,  avg # of iterations =  2.1

     total cpu time spent up to now is     7184.0 secs

     total energy              =    -302.80844114 Ry
     Harris-Foulkes estimate   =    -302.80844112 Ry
     estimated scf accuracy    <       0.00000035 Ry

     iteration #  6     ecut=    40.00 Ry     beta=0.30
     Davidson diagonalization with overlap
     ethr =  7.32E-10,  avg # of iterations =  2.0

     total cpu time spent up to now is     7248.1 secs

     End of self-consistent calculation

     Number of k-points >= 100: set verbosity='high' to print the bands.

!    total energy              =    -302.80844117 Ry
     Harris-Foulkes estimate   =    -302.80844117 Ry
     estimated scf accuracy    <       0.00000001 Ry

     The total energy is the sum of the following terms:

     one-electron contribution =     -85.77472785 Ry
     hartree contribution      =      57.01541414 Ry
     xc contribution           =     -47.62434239 Ry
     ewald contribution        =    -226.42478507 Ry

     convergence has been achieved in   6 iterations

     Forces acting on atoms (Ry/au):

     atom    1 type  2   force =    -0.00176475    0.00059834   -0.00793463
     atom    2 type  2   force =     0.00151875    0.00042378   -0.00801780
     atom    3 type  2   force =    -0.00182663   -0.00043585    0.00822094
     atom    4 type  2   force =     0.00197385   -0.00055637    0.00841846
     atom    5 type  1   force =    -0.00505145   -0.00007947   -0.00160985
     atom    6 type  1   force =     0.00481872    0.00018837   -0.00077987
     atom    7 type  1   force =    -0.00469526   -0.00020568    0.00189910
     atom    8 type  1   force =     0.00509165    0.00008178   -0.00167960
     atom    9 type  1   force =    -0.00291430   -0.00006292   -0.00023081
     atom   10 type  1   force =     0.00283571    0.00002011   -0.00009374
     atom   11 type  1   force =    -0.00280168   -0.00003445    0.00133852
     atom   12 type  1   force =     0.00281539    0.00006235    0.00046929

     Total force =     0.020499     Total SCF correction =     0.000141


     entering subroutine stress ...

          total   stress  (Ry/bohr**3)                   (kbar)     P=  301.18
   0.00205060  -0.00000041   0.00000248        301.65     -0.06      0.36
  -0.00000041   0.00210989  -0.00000218         -0.06    310.38     -0.32
   0.00000248  -0.00000218   0.00198175          0.36     -0.32    291.52


     number of scf cycles    =  11
     number of bfgs steps    =  10

     enthalpy old            =    -301.3472948564 Ry
     enthalpy new            =    -301.3481964239 Ry

     CASE: enthalpy_new < enthalpy_old

     new trust radius        =       0.0662567789 bohr
     new conv_thr            =       0.0000000842 Ry

     new unit-cell volume =    714.21402 a.u.^3 (   105.83560 Ang^3 )

CELL_PARAMETERS (alat= 11.28030000)
   0.850893939  -0.000105738   0.000617932
  -0.000059336   0.552053861   0.000239866
   0.000577609   0.000448716   1.059277614

ATOMIC_POSITIONS (crystal)
Ca       0.253015212   0.248961724   0.112358152
Ca       0.247218013  -0.249879684   0.612564150
Ca       0.752459473   0.249883320   0.387876072
Ca      -0.252813100  -0.248979530  -0.112024594
H        0.339483129   0.250281438   0.432583311
H        0.160705082  -0.251049714   0.932483713
H        0.839185183   0.251050815   0.067292017
H       -0.339234572  -0.250276178  -0.431170672
H        0.969816291   0.250287134   0.699523247
H       -0.469632517  -0.250639893   1.199564335
H        1.469578522   0.250645837  -0.201275179
H       -0.969780717  -0.250285269  -0.699774552



     Writing output data file CaH2_ambient.save
     NEW-OLD atomic charge density approx. for the potential
     NEW k-points: (use verbosity='high' to print them)
     extrapolated charge   47.89822, renormalised to   48.00000

     total cpu time spent up to now is     7342.5 secs

     per-process dynamical memory:    23.0 Mb

     Self-consistent Calculation

     iteration #  1     ecut=    40.00 Ry     beta=0.30
     Davidson diagonalization with overlap
     ethr =  1.00E-06,  avg # of iterations =  4.9

     total cpu time spent up to now is     7500.9 secs

     total energy              =    -302.80615345 Ry
     Harris-Foulkes estimate   =    -302.91636461 Ry
     estimated scf accuracy    <       0.00150034 Ry

     iteration #  2     ecut=    40.00 Ry     beta=0.30
     Davidson diagonalization with overlap
     ethr =  3.13E-06,  avg # of iterations =  2.0

     total cpu time spent up to now is     7574.2 secs

     total energy              =    -302.80616581 Ry
     Harris-Foulkes estimate   =    -302.80632495 Ry
     estimated scf accuracy    <       0.00080316 Ry

     iteration #  3     ecut=    40.00 Ry     beta=0.30
     Davidson diagonalization with overlap
     ethr =  1.67E-06,  avg # of iterations =  1.0

     total cpu time spent up to now is     7630.3 secs

     total energy              =    -302.80609588 Ry
     Harris-Foulkes estimate   =    -302.80617781 Ry
     estimated scf accuracy    <       0.00023913 Ry

     iteration #  4     ecut=    40.00 Ry     beta=0.30
     Davidson diagonalization with overlap
     ethr =  4.98E-07,  avg # of iterations =  2.0

     total cpu time spent up to now is     7695.2 secs

     total energy              =    -302.80611411 Ry
     Harris-Foulkes estimate   =    -302.80611304 Ry
     estimated scf accuracy    <       0.00000250 Ry

     iteration #  5     ecut=    40.00 Ry     beta=0.30
     Davidson diagonalization with overlap
     ethr =  5.21E-09,  avg # of iterations =  2.1

     total cpu time spent up to now is     7770.3 secs

     total energy              =    -302.80611447 Ry
     Harris-Foulkes estimate   =    -302.80611447 Ry
     estimated scf accuracy    <       0.00000087 Ry

     iteration #  6     ecut=    40.00 Ry     beta=0.30
     Davidson diagonalization with overlap
     ethr =  1.81E-09,  avg # of iterations =  2.0

     total cpu time spent up to now is     7834.0 secs

     End of self-consistent calculation

     Number of k-points >= 100: set verbosity='high' to print the bands.

!    total energy              =    -302.80611452 Ry
     Harris-Foulkes estimate   =    -302.80611452 Ry
     estimated scf accuracy    <       0.00000004 Ry

     The total energy is the sum of the following terms:

     one-electron contribution =     -85.35350055 Ry
     hartree contribution      =      56.84177838 Ry
     xc contribution           =     -47.62042980 Ry
     ewald contribution        =    -226.67396256 Ry

     convergence has been achieved in   6 iterations

     Forces acting on atoms (Ry/au):

     atom    1 type  2   force =    -0.00232524    0.00025082   -0.00525392
     atom    2 type  2   force =     0.00204253    0.00083671   -0.00591108
     atom    3 type  2   force =    -0.00183795   -0.00083376    0.00547712
     atom    4 type  2   force =     0.00191070   -0.00019927    0.00471759
     atom    5 type  1   force =    -0.00447275   -0.00002227   -0.00504296
     atom    6 type  1   force =     0.00418728    0.00047819   -0.00425318
     atom    7 type  1   force =    -0.00392245   -0.00049938    0.00543326
     atom    8 type  1   force =     0.00431682    0.00001785    0.00254916
     atom    9 type  1   force =    -0.00076200   -0.00009788   -0.00099851
     atom   10 type  1   force =     0.00044805    0.00018586   -0.00088754
     atom   11 type  1   force =    -0.00017205   -0.00020622    0.00277929
     atom   12 type  1   force =     0.00058706    0.00008935    0.00139077

     Total force =     0.017239     Total SCF correction =     0.000244


     entering subroutine stress ...

          total   stress  (Ry/bohr**3)                   (kbar)     P=  299.35
   0.00202428   0.00000029  -0.00000384        297.78      0.04     -0.56
   0.00000029   0.00211434  -0.00000409          0.04    311.03     -0.60
  -0.00000384  -0.00000409   0.00196616         -0.56     -0.60    289.23


     number of scf cycles    =  12
     number of bfgs steps    =  11

     enthalpy old            =    -301.3481964239 Ry
     enthalpy new            =    -301.3495758219 Ry

     CASE: enthalpy_new < enthalpy_old

     new trust radius        =       0.0681926366 bohr
     new conv_thr            =       0.0000000591 Ry

     new unit-cell volume =    711.73145 a.u.^3 (   105.46772 Ang^3 )

CELL_PARAMETERS (alat= 11.28030000)
   0.840876951  -0.000179788   0.001113089
  -0.000102526   0.557763456   0.000156448
   0.001100798   0.000286374   1.057236997

ATOMIC_POSITIONS (crystal)
Ca       0.255044680   0.249275894   0.109483807
Ca       0.245224307  -0.249551517   0.609708846
Ca       0.754207261   0.249552945   0.390998871
Ca      -0.254628123  -0.249284513  -0.108865903
H        0.333736192   0.250288940   0.433307996
H        0.166394605  -0.251138169   0.933518712
H        0.833509668   0.251130531   0.066640298
H       -0.333404313  -0.250279829  -0.432447885
H        0.967344355   0.250309997   0.704369508
H       -0.467141365  -0.250765157   1.204472167
H        1.467051807   0.250766518  -0.206606150
H       -0.967339074  -0.250305639  -0.704580267



     Writing output data file CaH2_ambient.save
     NEW-OLD atomic charge density approx. for the potential
     NEW k-points: (use verbosity='high' to print them)
     extrapolated charge   47.86048, renormalised to   48.00000

     total cpu time spent up to now is     7930.1 secs

     per-process dynamical memory:    23.0 Mb

     Self-consistent Calculation

     iteration #  1     ecut=    40.00 Ry     beta=0.30
     Davidson diagonalization with overlap
     ethr =  1.00E-06,  avg # of iterations =  5.0

     total cpu time spent up to now is     8089.3 secs

     total energy              =    -302.80231924 Ry
     Harris-Foulkes estimate   =    -302.95220884 Ry
     estimated scf accuracy    <       0.00209057 Ry

     iteration #  2     ecut=    40.00 Ry     beta=0.30
     Davidson diagonalization with overlap
     ethr =  4.36E-06,  avg # of iterations =  2.0

     total cpu time spent up to now is     8166.4 secs

     total energy              =    -302.80245620 Ry
     Harris-Foulkes estimate   =    -302.80264192 Ry
     estimated scf accuracy    <       0.00105217 Ry

     iteration #  3     ecut=    40.00 Ry     beta=0.30
     Davidson diagonalization with overlap
     ethr =  2.19E-06,  avg # of iterations =  1.0

     total cpu time spent up to now is     8223.8 secs

     total energy              =    -302.80234436 Ry
     Harris-Foulkes estimate   =    -302.80247151 Ry
     estimated scf accuracy    <       0.00037297 Ry

     iteration #  4     ecut=    40.00 Ry     beta=0.30
     Davidson diagonalization with overlap
     ethr =  7.77E-07,  avg # of iterations =  2.0

     total cpu time spent up to now is     8290.2 secs

     total energy              =    -302.80237319 Ry
     Harris-Foulkes estimate   =    -302.80237180 Ry
     estimated scf accuracy    <       0.00000358 Ry

     iteration #  5     ecut=    40.00 Ry     beta=0.30
     Davidson diagonalization with overlap
     ethr =  7.45E-09,  avg # of iterations =  2.3

     total cpu time spent up to now is     8370.2 secs

     total energy              =    -302.80237392 Ry
     Harris-Foulkes estimate   =    -302.80237381 Ry
     estimated scf accuracy    <       0.00000131 Ry

     iteration #  6     ecut=    40.00 Ry     beta=0.30
     Davidson diagonalization with overlap
     ethr =  2.73E-09,  avg # of iterations =  2.0

     total cpu time spent up to now is     8431.6 secs

     total energy              =    -302.80237396 Ry
     Harris-Foulkes estimate   =    -302.80237399 Ry
     estimated scf accuracy    <       0.00000011 Ry

     iteration #  7     ecut=    40.00 Ry     beta=0.30
     Davidson diagonalization with overlap
[...]

     enthalpy old            =    -301.3773341662 Ry
     enthalpy new            =    -301.3773492488 Ry

     CASE: enthalpy_new < enthalpy_old

     new trust radius        =       0.0021980323 bohr
     new conv_thr            =       0.0000000100 Ry

     new unit-cell volume =    683.30762 a.u.^3 (   101.25574 Ang^3 )

CELL_PARAMETERS (alat= 11.28030000)
   0.774930358  -0.000011013   0.000263515
  -0.000012254   0.595814252   0.000003880
   0.000016574   0.000161235   1.031052448

ATOMIC_POSITIONS (crystal)
Ca       0.250033432   0.249672380   0.083146354
Ca       0.249974053  -0.249857759   0.583161595
Ca       0.749963521   0.249844646   0.416883485
Ca      -0.249969202  -0.249661216  -0.083039091
H        0.250698707   0.250161726   0.416703332
H        0.249261566  -0.250348425   0.916711174
H        0.750714867   0.250369962   0.083347246
H       -0.250800315  -0.250182815  -0.416709829
H        1.000463167   0.249996668   0.749819912
H       -0.500399569  -0.250030397   1.249849807
H        1.500427546   0.250032895  -0.249912374
H       -1.000367772  -0.249997665  -0.749961613



     Writing output data file CaH2_ambient.save
     NEW-OLD atomic charge density approx. for the potential
     NEW k-points: (use verbosity='high' to print them)
     extrapolated charge   48.00292, renormalised to   48.00000

     total cpu time spent up to now is    21095.4 secs

     per-process dynamical memory:    23.0 Mb

     Self-consistent Calculation

     iteration #  1     ecut=    40.00 Ry     beta=0.30
     Davidson diagonalization with overlap
     ethr =  1.00E-06,  avg # of iterations =  3.0

     Threshold (ethr) on eigenvalues was too large:
     Diagonalizing with lowered threshold

     Davidson diagonalization with overlap
     ethr =  6.74E-09,  avg # of iterations =  2.8

     total cpu time spent up to now is    21291.7 secs

     total energy              =    -302.77086674 Ry
     Harris-Foulkes estimate   =    -302.76797305 Ry
     estimated scf accuracy    <       0.00000339 Ry

     iteration #  2     ecut=    40.00 Ry     beta=0.30
     Davidson diagonalization with overlap
     ethr =  7.07E-09,  avg # of iterations =  1.0

     total cpu time spent up to now is    21359.5 secs

     total energy              =    -302.77086624 Ry
     Harris-Foulkes estimate   =    -302.77086690 Ry
     estimated scf accuracy    <       0.00000194 Ry

     iteration #  3     ecut=    40.00 Ry     beta=0.30
     Davidson diagonalization with overlap
     ethr =  4.04E-09,  avg # of iterations =  2.0

     total cpu time spent up to now is    21438.1 secs

     total energy              =    -302.77086628 Ry
     Harris-Foulkes estimate   =    -302.77086637 Ry
     estimated scf accuracy    <       0.00000020 Ry

     iteration #  4     ecut=    40.00 Ry     beta=0.30
     Davidson diagonalization with overlap
     ethr =  4.27E-10,  avg # of iterations =  2.0

     total cpu time spent up to now is    21514.6 secs

     total energy              =    -302.77086631 Ry
     Harris-Foulkes estimate   =    -302.77086630 Ry
     estimated scf accuracy    <       0.00000001 Ry

     iteration #  5     ecut=    40.00 Ry     beta=0.30
     Davidson diagonalization with overlap
     ethr =  2.47E-11,  avg # of iterations =  1.4

     total cpu time spent up to now is    21582.7 secs

     End of self-consistent calculation

     Number of k-points >= 100: set verbosity='high' to print the bands.

!    total energy              =    -302.77086630 Ry
     Harris-Foulkes estimate   =    -302.77086631 Ry
     estimated scf accuracy    <          4.4E-09 Ry

     The total energy is the sum of the following terms:

     one-electron contribution =     -79.48762673 Ry
     hartree contribution      =      54.70434970 Ry
     xc contribution           =     -47.64728744 Ry
     ewald contribution        =    -230.34030184 Ry

     convergence has been achieved in   5 iterations

     Forces acting on atoms (Ry/au):

     atom    1 type  2   force =     0.00011896   -0.00009212    0.00027005
     atom    2 type  2   force =    -0.00010964    0.00014332    0.00027080
     atom    3 type  2   force =     0.00020078   -0.00014453   -0.00030692
     atom    4 type  2   force =    -0.00020057    0.00009834   -0.00060794
     atom    5 type  1   force =    -0.00030507   -0.00003066   -0.00019270
     atom    6 type  1   force =     0.00033377    0.00015326   -0.00018108
     atom    7 type  1   force =    -0.00029565   -0.00016824    0.00014917
     atom    8 type  1   force =     0.00034717    0.00004298    0.00029983
     atom    9 type  1   force =    -0.00034150   -0.00000983   -0.00003147
     atom   10 type  1   force =     0.00028339    0.00002757   -0.00008762
     atom   11 type  1   force =    -0.00029710   -0.00002971    0.00019958
     atom   12 type  1   force =     0.00026545    0.00000962    0.00021832

     Total force =     0.001371     Total SCF correction =     0.000187
     SCF correction compared to forces is large: reduce conv_thr to get better values


     entering subroutine stress ...

          total   stress  (Ry/bohr**3)                   (kbar)     P=  300.08
   0.00204095   0.00000019  -0.00000203        300.23      0.03     -0.30
   0.00000019   0.00204159  -0.00000057          0.03    300.33     -0.08
  -0.00000203  -0.00000057   0.00203721         -0.30     -0.08    299.68


     bfgs converged in  33 scf cycles and  32 bfgs steps
     (criteria: energy < 0.10E-03, force < 0.10E-02, cell < 0.50E+00)

     End of BFGS Geometry Optimization

     Final enthalpy =    -301.3773568230 Ry
Begin final coordinates
     new unit-cell volume =    683.30762 a.u.^3 (   101.25574 Ang^3 )

CELL_PARAMETERS (alat= 11.28030000)
   0.774930358  -0.000011013   0.000263515
  -0.000012254   0.595814252   0.000003880
   0.000016574   0.000161235   1.031052448

ATOMIC_POSITIONS (crystal)
Ca       0.250033432   0.249672380   0.083146354
Ca       0.249974053  -0.249857759   0.583161595
Ca       0.749963521   0.249844646   0.416883485
Ca      -0.249969202  -0.249661216  -0.083039091
H        0.250698707   0.250161726   0.416703332
H        0.249261566  -0.250348425   0.916711174
H        0.750714867   0.250369962   0.083347246
H       -0.250800315  -0.250182815  -0.416709829
H        1.000463167   0.249996668   0.749819912
H       -0.500399569  -0.250030397   1.249849807
H        1.500427546   0.250032895  -0.249912374
H       -1.000367772  -0.249997665  -0.749961613
End final coordinates



     A final scf calculation at the relaxed structure.
     The G-vectors are recalculated for the final unit cell
     Results may differ from those at the preceding step.

     G-vector sticks info
     --------------------
     sticks:   dense  smooth     PW     G-vecs:    dense   smooth      PW
     Sum         753     753    221                23383    23383    3733



     bravais-lattice index     =            8
     lattice parameter (alat)  =      11.2803  a.u.
     unit-cell volume          =     683.3076 (a.u.)^3
     number of atoms/cell      =           12
     number of atomic types    =            2
     number of electrons       =        48.00
     number of Kohn-Sham states=           24
     kinetic-energy cutoff     =      40.0000  Ry
     charge density cutoff     =     160.0000  Ry
     convergence threshold     =      1.0E-08
     mixing beta               =       0.3000
     number of iterations used =           16  local-TF  mixing
     Exchange-correlation      = PBE ( 1 4 3 4 0)
     EXX-fraction              =        0.00

     celldm(1)=  11.280300  celldm(2)=   0.604300  celldm(3)=   1.146000
     celldm(4)=   0.000000  celldm(5)=   0.000000  celldm(6)=   0.000000

     crystal axes: (cart. coord. in units of alat)
               a(1) = (   0.774930  -0.000011   0.000264 )  
               a(2) = (  -0.000012   0.595814   0.000004 )  
               a(3) = (   0.000017   0.000161   1.031052 )  

     reciprocal axes: (cart. coord. in units 2 pi/alat)
               b(1) = (  1.290439  0.000027 -0.000021 )  
               b(2) = (  0.000024  1.678375 -0.000262 )  
               b(3) = ( -0.000330 -0.000006  0.969883 )  


     PseudoPot. # 1 for H  read from file:
     /home/ilia/espresso/pseudo/H.pbe-sp-mt.ncpp
     MD5 check sum: 7a641936b52ccecd26bd1ad87cca5aed
     Pseudo is Norm-conserving, Zval =  1.0
     Generated by old ld1 code (numerical format)
     Using radial grid of 1076 points,  0 beta functions with: 

     PseudoPot. # 2 for Ca read from file:
     /home/ilia/espresso/pseudo/Ca.pbe-sp-mt_ion2.ncpp
     MD5 check sum: 4bcd670d05521f7b178fdf0a334578ab
     Pseudo is Norm-conserving, Zval = 10.0
     Generated by old ld1 code (numerical format)
     Using radial grid of 1153 points,  1 beta functions with: 
                l(1) =   1

     atomic species   valence    mass     pseudopotential
        H              1.00     1.00700     H ( 1.00)
        Ca            10.00    40.07800     Ca( 1.00)

     No symmetry found
          (note:  1 additional sym.ops. were found but ignored
           their fractional translations are incommensurate with FFT grid)


   Cartesian axes

     site n.     atom                  positions (alat units)
         1           Ca  tau(   1) = (   0.1937568   0.1487690   0.0857951  )
         2           Ca  tau(   2) = (   0.1937252  -0.1487775   0.6013351  )
         3           Ca  tau(   3) = (   0.5811733   0.1489200   0.4300273  )
         4           Ca  tau(   4) = (  -0.1937070  -0.1487623  -0.0856845  )
         5           H   tau(   5) = (   0.1942779   0.1491143   0.4297100  )
         6           H   tau(   6) = (   0.1931786  -0.1490161   0.9452420  )
         7           H   tau(   7) = (   0.5817501   0.1491792   0.0861342  )
         8           H   tau(   8) = (  -0.1943566  -0.1491269  -0.4297168  )
         9           H   tau(   9) = (   0.7752986   0.1490615   0.7733683  )
        10           H   tau(  10) = (  -0.3877510  -0.1487646   1.2885279  )
        11           H   tau(  11) = (   1.1627196   0.1489163  -0.2572764  )
        12           H   tau(  12) = (  -0.7752247  -0.1490621  -0.7735143  )

     number of k points=   108

     Number of k-points >= 100: set verbosity='high' to print them.

     Dense  grid:    23383 G-vectors     FFT dimensions: (  36,  27,  48)

     Largest allocated arrays     est. size (Mb)     dimensions
        Kohn-Sham Wavefunctions         1.07 Mb     (   2932,   24)
        NL pseudopotentials             0.54 Mb     (   2932,   12)
        Each V/rho on FFT grid          0.71 Mb     (  46656)
        Each G-vector array             0.18 Mb     (  23383)
        G-vector shells                 0.09 Mb     (  11692)
     Largest temporary arrays     est. size (Mb)     dimensions
        Auxiliary wavefunctions         4.29 Mb     (   2932,   96)
        Each subspace H/S matrix        0.14 Mb     (  96,  96)
        Each <psi_i|beta_j> matrix      0.00 Mb     (     12,   24)
        Arrays for rho mixing          11.39 Mb     (  46656,  16)

     Initial potential from superposition of free atoms

     starting charge   39.99992, renormalised to   48.00000
     Starting wfc are   24 randomized atomic wfcs

     Writing output data file CaH2_ambient.save

     total cpu time spent up to now is    21663.3 secs

     per-process dynamical memory:    17.0 Mb

     Self-consistent Calculation

     iteration #  1     ecut=    40.00 Ry     beta=0.30
     Davidson diagonalization with overlap
     ethr =  1.00E-06,  avg # of iterations =  5.0

     total cpu time spent up to now is    21781.9 secs

     total energy              =    -305.87627767 Ry
     Harris-Foulkes estimate   =    -308.15205314 Ry
     estimated scf accuracy    <      11.06832362 Ry

     iteration #  2     ecut=    40.00 Ry     beta=0.30
     Davidson diagonalization with overlap
     ethr =  1.00E-02,  avg # of iterations =  1.0

     total cpu time spent up to now is    21816.6 secs

     total energy              =    -301.49549559 Ry
     Harris-Foulkes estimate   =    -306.00204115 Ry
     estimated scf accuracy    <       6.58804244 Ry

     iteration #  3     ecut=    40.00 Ry     beta=0.30
     Davidson diagonalization with overlap
     ethr =  1.00E-02,  avg # of iterations =  2.0

     total cpu time spent up to now is    21876.2 secs

     total energy              =    -302.72483905 Ry
     Harris-Foulkes estimate   =    -302.73281658 Ry
     estimated scf accuracy    <       0.21801598 Ry

     iteration #  4     ecut=    40.00 Ry     beta=0.30
     Davidson diagonalization with overlap
     ethr =  4.54E-04,  avg # of iterations =  1.2

     total cpu time spent up to now is    21911.1 secs

     total energy              =    -302.73438941 Ry
     Harris-Foulkes estimate   =    -302.72922692 Ry
     estimated scf accuracy    <       0.13447374 Ry

     iteration #  5     ecut=    40.00 Ry     beta=0.30
     Davidson diagonalization with overlap
     ethr =  2.80E-04,  avg # of iterations =  2.0

     total cpu time spent up to now is    21953.2 secs

     total energy              =    -302.74423516 Ry
     Harris-Foulkes estimate   =    -302.74436553 Ry
     estimated scf accuracy    <       0.00344985 Ry

     iteration #  6     ecut=    40.00 Ry     beta=0.30
     Davidson diagonalization with overlap
     ethr =  7.19E-06,  avg # of iterations =  2.1

     total cpu time spent up to now is    21992.0 secs

     total energy              =    -302.74471630 Ry
     Harris-Foulkes estimate   =    -302.74445318 Ry
     estimated scf accuracy    <       0.00181153 Ry

     iteration #  7     ecut=    40.00 Ry     beta=0.30
     Davidson diagonalization with overlap
     ethr =  3.77E-06,  avg # of iterations =  2.0

     total cpu time spent up to now is    22029.9 secs

     total energy              =    -302.74453923 Ry
     Harris-Foulkes estimate   =    -302.74482291 Ry
     estimated scf accuracy    <       0.00042545 Ry

     iteration #  8     ecut=    40.00 Ry     beta=0.30
     Davidson diagonalization with overlap
     ethr =  8.86E-07,  avg # of iterations =  2.0

     total cpu time spent up to now is    22083.2 secs

     total energy              =    -302.74461127 Ry
     Harris-Foulkes estimate   =    -302.74460775 Ry
     estimated scf accuracy    <       0.00000601 Ry

     iteration #  9     ecut=    40.00 Ry     beta=0.30
     Davidson diagonalization with overlap
     ethr =  1.25E-08,  avg # of iterations =  3.0

     total cpu time spent up to now is    22143.3 secs

     total energy              =    -302.74460609 Ry
     Harris-Foulkes estimate   =    -302.74461816 Ry
     estimated scf accuracy    <       0.00002357 Ry

     iteration # 10     ecut=    40.00 Ry     beta=0.30
     Davidson diagonalization with overlap
     ethr =  1.25E-08,  avg # of iterations =  2.0

     total cpu time spent up to now is    22197.3 secs

     total energy              =    -302.74460965 Ry
     Harris-Foulkes estimate   =    -302.74460965 Ry
     estimated scf accuracy    <       0.00000013 Ry

     iteration # 11     ecut=    40.00 Ry     beta=0.30
     Davidson diagonalization with overlap
     ethr =  2.80E-10,  avg # of iterations =  2.0

     total cpu time spent up to now is    22234.7 secs

     total energy              =    -302.74460964 Ry
     Harris-Foulkes estimate   =    -302.74460966 Ry
     estimated scf accuracy    <       0.00000010 Ry

     iteration # 12     ecut=    40.00 Ry     beta=0.30
     Davidson diagonalization with overlap
     ethr =  2.09E-10,  avg # of iterations =  1.5

     total cpu time spent up to now is    22267.9 secs

     total energy              =    -302.74460964 Ry
     Harris-Foulkes estimate   =    -302.74460964 Ry
     estimated scf accuracy    <       0.00000001 Ry

     iteration # 13     ecut=    40.00 Ry     beta=0.30
     Davidson diagonalization with overlap
     ethr =  2.70E-11,  avg # of iterations =  2.0

     total cpu time spent up to now is    22310.4 secs

     End of self-consistent calculation

     Number of k-points >= 100: set verbosity='high' to print the bands.

!    total energy              =    -302.74460964 Ry
     Harris-Foulkes estimate   =    -302.74460964 Ry
     estimated scf accuracy    <          3.4E-10 Ry

     The total energy is the sum of the following terms:

     one-electron contribution =     -79.45353840 Ry
     hartree contribution      =      54.68482983 Ry
     xc contribution           =     -47.63559921 Ry
     ewald contribution        =    -230.34030185 Ry

     convergence has been achieved in  13 iterations

     Forces acting on atoms (Ry/au):

     atom    1 type  2   force =     0.00010109   -0.00161169    0.00020677
     atom    2 type  2   force =    -0.00012019    0.00171099    0.00020062
     atom    3 type  2   force =     0.00019553   -0.00170745   -0.00020910
     atom    4 type  2   force =    -0.00016633    0.00161070   -0.00053256
     atom    5 type  1   force =    -0.00030429   -0.00002649   -0.00019235
     atom    6 type  1   force =     0.00032902    0.00014978   -0.00018754
     atom    7 type  1   force =    -0.00029125   -0.00016425    0.00014226
     atom    8 type  1   force =     0.00034608    0.00003947    0.00029416
     atom    9 type  1   force =    -0.00033997   -0.00000816   -0.00004148
     atom   10 type  1   force =     0.00028158    0.00002618   -0.00008767
     atom   11 type  1   force =    -0.00029590   -0.00002764    0.00018925
     atom   12 type  1   force =     0.00026461    0.00000856    0.00021766

     Total force =     0.003552     Total SCF correction =     0.000005


     entering subroutine stress ...

          total   stress  (Ry/bohr**3)                   (kbar)     P=  297.51
   0.00204559   0.00000019  -0.00000209        300.92      0.03     -0.31
   0.00000019   0.00201095  -0.00000056          0.03    295.82     -0.08
  -0.00000209  -0.00000056   0.00201073         -0.31     -0.08    295.79


     Writing output data file CaH2_ambient.save

     init_run     :     77.20s CPU     81.38s WALL (       2 calls)
     electrons    :  18230.09s CPU  19095.47s WALL (      34 calls)
     update_pot   :   1279.53s CPU   1338.89s WALL (      32 calls)
     forces       :    535.32s CPU    544.18s WALL (      34 calls)
     stress       :   1248.67s CPU   1263.78s WALL (      34 calls)

     Called by init_run:
     wfcinit      :     39.38s CPU     42.52s WALL (       2 calls)
     potinit      :     17.79s CPU     18.22s WALL (       2 calls)

     Called by electrons:
     c_bands      :  16090.04s CPU  16884.72s WALL (     239 calls)
     sum_band     :   2080.77s CPU   2147.66s WALL (     239 calls)
     v_of_rho     :     31.15s CPU     32.30s WALL (     267 calls)
     mix_rho      :     30.70s CPU     33.15s WALL (     239 calls)

     Called by c_bands:
     init_us_2    :    208.16s CPU    223.30s WALL (   59184 calls)
     cegterg      :  15983.58s CPU  16467.23s WALL (   25812 calls)

     Called by *egterg:
     h_psi        :   9549.19s CPU   9739.27s WALL (   83274 calls)
     g_psi        :     70.89s CPU     72.84s WALL (   57246 calls)
     cdiaghg      :    197.46s CPU    201.93s WALL (   78954 calls)

     Called by h_psi:
     add_vuspsi   :    294.80s CPU    300.43s WALL (   83274 calls)

     General routines
     calbec       :    335.38s CPU    342.15s WALL (   90618 calls)
     fft          :     10.05s CPU     10.22s WALL (    3219 calls)
     ffts         :     11.82s CPU     12.02s WALL (    3843 calls)
     fftw         :   8635.35s CPU   8771.63s WALL ( 3942716 calls)
     davcio       :     11.66s CPU    345.12s WALL (   84996 calls)


     PWSCF        :     5h56m CPU        6h12m WALL


   This run was terminated on:   8:20:49   4Jun2014            

=------------------------------------------------------------------------------=
   JOB DONE.
=------------------------------------------------------------------------------=
