
     Program PWSCF v.5.0.2 (svn rev. 9392) starts on  3Jun2014 at 22: 4:56 

     This program is part of the open-source Quantum ESPRESSO suite
     for quantum simulation of materials; please cite
         "P. Giannozzi et al., J. Phys.:Condens. Matter 21 395502 (2009);
          URL http://www.quantum-espresso.org", 
     in publications or presentations arising from this work. More details at
     http://www.quantum-espresso.org/quote.php

     Serial version

     Current dimensions of program PWSCF are:
     Max number of different atomic species (ntypx) = 10
     Max number of k-points (npk) =  40000
     Max angular momentum in pseudopotentials (lmaxx) =  3
     Waiting for input...
     Reading input from standard input

     G-vector sticks info
     --------------------
     sticks:   dense  smooth     PW     G-vecs:    dense   smooth      PW
     Sum         983     983    291                34015    34015    5283



     bravais-lattice index     =            8
     lattice parameter (alat)  =      11.2803  a.u.
     unit-cell volume          =     994.0292 (a.u.)^3
     number of atoms/cell      =           12
     number of atomic types    =            2
     number of electrons       =        48.00
     number of Kohn-Sham states=           24
     kinetic-energy cutoff     =      40.0000  Ry
     charge density cutoff     =     160.0000  Ry
     convergence threshold     =      1.0E-06
     mixing beta               =       0.3000
     number of iterations used =           16  local-TF  mixing
     Exchange-correlation      = PBE ( 1 4 3 4 0)
     EXX-fraction              =        0.00
     nstep                     =           50


     celldm(1)=  11.280300  celldm(2)=   0.604300  celldm(3)=   1.146000
     celldm(4)=   0.000000  celldm(5)=   0.000000  celldm(6)=   0.000000

     crystal axes: (cart. coord. in units of alat)
               a(1) = (   1.000000   0.000000   0.000000 )  
               a(2) = (   0.000000   0.604300   0.000000 )  
               a(3) = (   0.000000   0.000000   1.146000 )  

     reciprocal axes: (cart. coord. in units 2 pi/alat)
               b(1) = (  1.000000  0.000000  0.000000 )  
               b(2) = (  0.000000  1.654807  0.000000 )  
               b(3) = (  0.000000  0.000000  0.872600 )  


     PseudoPot. # 1 for H  read from file:
     /home/ilia/espresso/pseudo/H.pbe-sp-mt.ncpp
     MD5 check sum: 7a641936b52ccecd26bd1ad87cca5aed
     Pseudo is Norm-conserving, Zval =  1.0
     Generated by old ld1 code (numerical format)
     Using radial grid of 1076 points,  0 beta functions with: 

     PseudoPot. # 2 for Ca read from file:
     /home/ilia/espresso/pseudo/Ca.pbe-sp-mt_ion2.ncpp
     MD5 check sum: 4bcd670d05521f7b178fdf0a334578ab
     Pseudo is Norm-conserving, Zval = 10.0
     Generated by old ld1 code (numerical format)
     Using radial grid of 1153 points,  1 beta functions with: 
                l(1) =   1

     atomic species   valence    mass     pseudopotential
        H              1.00     1.00700     H ( 1.00)
        Ca            10.00    40.07800     Ca( 1.00)

     No symmetry found
          (note:  1 additional sym.ops. were found but ignored
           their fractional translations are incommensurate with FFT grid)


   Cartesian axes

     site n.     atom                  positions (alat units)
         1           Ca  tau(   1) = (   0.2400000   0.1510750   0.1259454  )
         2           Ca  tau(   2) = (   0.2600000  -0.1510750   0.6989454  )
         3           Ca  tau(   3) = (   0.7400000   0.1510750   0.4470546  )
         4           Ca  tau(   4) = (  -0.2400000  -0.1510750  -0.1259454  )
         5           H   tau(   5) = (   0.3557000   0.1510750   0.4887690  )
         6           H   tau(   6) = (   0.1443000  -0.1510750   1.0617690  )
         7           H   tau(   7) = (   0.8557000   0.1510750   0.0842310  )
         8           H   tau(   8) = (  -0.3557000  -0.1510750  -0.4922070  )
         9           H   tau(   9) = (   0.9754000   0.1510750   0.7752690  )
        10           H   tau(  10) = (  -0.4754000  -0.1510750   1.3482690  )
        11           H   tau(  11) = (   1.4754000   0.1510750  -0.1988310  )
        12           H   tau(  12) = (  -0.9754000  -0.1510750  -0.7752690  )

     number of k points=   108

     Number of k-points >= 100: set verbosity='high' to print them.

     Dense  grid:    34015 G-vectors     FFT dimensions: (  45,  27,  54)

     Largest allocated arrays     est. size (Mb)     dimensions
        Kohn-Sham Wavefunctions         1.56 Mb     (   4268,   24)
        NL pseudopotentials             0.78 Mb     (   4268,   12)
        Each V/rho on FFT grid          1.00 Mb     (  65610)
        Each G-vector array             0.26 Mb     (  34015)
        G-vector shells                 0.26 Mb     (  34015)
     Largest temporary arrays     est. size (Mb)     dimensions
        Auxiliary wavefunctions         6.25 Mb     (   4268,   96)
        Each subspace H/S matrix        0.14 Mb     (  96,  96)
        Each <psi_i|beta_j> matrix      0.00 Mb     (     12,   24)
        Arrays for rho mixing          16.02 Mb     (  65610,  16)

     Initial potential from superposition of free atoms

     starting charge   39.99992, renormalised to   48.00000
     Starting wfc are   24 randomized atomic wfcs

     total cpu time spent up to now is       48.8 secs

     per-process dynamical memory:    17.1 Mb

     Self-consistent Calculation

     iteration #  1     ecut=    40.00 Ry     beta=0.30
     Davidson diagonalization with overlap
     ethr =  1.00E-02,  avg # of iterations =  2.0

     total cpu time spent up to now is      116.9 secs

     total energy              =    -306.47248621 Ry
     Harris-Foulkes estimate   =    -308.75457630 Ry
     estimated scf accuracy    <      11.56521712 Ry

     iteration #  2     ecut=    40.00 Ry     beta=0.30
     Davidson diagonalization with overlap
     ethr =  1.00E-02,  avg # of iterations =  1.0

     total cpu time spent up to now is      166.0 secs

     total energy              =    -301.79593211 Ry
     Harris-Foulkes estimate   =    -306.59728518 Ry
     estimated scf accuracy    <       7.06306850 Ry

     iteration #  3     ecut=    40.00 Ry     beta=0.30
     Davidson diagonalization with overlap
     ethr =  1.00E-02,  avg # of iterations =  2.0

     total cpu time spent up to now is      234.3 secs

     total energy              =    -303.04582892 Ry
     Harris-Foulkes estimate   =    -303.07523321 Ry
     estimated scf accuracy    <       0.35070893 Ry

     iteration #  4     ecut=    40.00 Ry     beta=0.30
     Davidson diagonalization with overlap
     ethr =  7.31E-04,  avg # of iterations =  1.0

     total cpu time spent up to now is      277.8 secs

     total energy              =    -303.03333580 Ry
     Harris-Foulkes estimate   =    -303.05071658 Ry
     estimated scf accuracy    <       0.22564052 Ry

     iteration #  5     ecut=    40.00 Ry     beta=0.30
     Davidson diagonalization with overlap
     ethr =  4.70E-04,  avg # of iterations =  2.0

     total cpu time spent up to now is      330.6 secs

     total energy              =    -303.05082388 Ry
     Harris-Foulkes estimate   =    -303.05148951 Ry
     estimated scf accuracy    <       0.00813008 Ry

     iteration #  6     ecut=    40.00 Ry     beta=0.30
     Davidson diagonalization with overlap
     ethr =  1.69E-05,  avg # of iterations =  2.0

     total cpu time spent up to now is      377.2 secs

     total energy              =    -303.05162876 Ry
     Harris-Foulkes estimate   =    -303.05116958 Ry
     estimated scf accuracy    <       0.00439837 Ry

     iteration #  7     ecut=    40.00 Ry     beta=0.30
     Davidson diagonalization with overlap
     ethr =  9.16E-06,  avg # of iterations =  2.0

     total cpu time spent up to now is      428.6 secs

     total energy              =    -303.05126173 Ry
     Harris-Foulkes estimate   =    -303.05203494 Ry
     estimated scf accuracy    <       0.00122909 Ry

     iteration #  8     ecut=    40.00 Ry     beta=0.30
     Davidson diagonalization with overlap
     ethr =  2.56E-06,  avg # of iterations =  2.0

     total cpu time spent up to now is      493.6 secs

     total energy              =    -303.05151233 Ry
     Harris-Foulkes estimate   =    -303.05150480 Ry
     estimated scf accuracy    <       0.00002034 Ry

     iteration #  9     ecut=    40.00 Ry     beta=0.30
     Davidson diagonalization with overlap
     ethr =  4.24E-08,  avg # of iterations =  2.5

     total cpu time spent up to now is      545.7 secs

     total energy              =    -303.05150804 Ry
     Harris-Foulkes estimate   =    -303.05151586 Ry
     estimated scf accuracy    <       0.00002959 Ry

     iteration # 10     ecut=    40.00 Ry     beta=0.30
     Davidson diagonalization with overlap
     ethr =  4.24E-08,  avg # of iterations =  2.0

     total cpu time spent up to now is      602.2 secs

     End of self-consistent calculation

     Number of k-points >= 100: set verbosity='high' to print the bands.

!    total energy              =    -303.05150952 Ry
     Harris-Foulkes estimate   =    -303.05150979 Ry
     estimated scf accuracy    <       0.00000075 Ry

     The total energy is the sum of the following terms:

     one-electron contribution =    -121.74451130 Ry
     hartree contribution      =      68.07615896 Ry
     xc contribution           =     -46.61644453 Ry
     ewald contribution        =    -202.76671266 Ry

     convergence has been achieved in  10 iterations

     Forces acting on atoms (Ry/au):

     atom    1 type  2   force =    -0.00033836   -0.00114419   -0.00043883
     atom    2 type  2   force =    -0.00161341    0.00070798   -0.00142378
     atom    3 type  2   force =     0.00197308   -0.00070823   -0.00060445
     atom    4 type  2   force =    -0.00015704    0.00114508    0.00071155
     atom    5 type  1   force =    -0.00046958    0.00000139    0.00084641
     atom    6 type  1   force =     0.00029097   -0.00000126    0.00024858
     atom    7 type  1   force =    -0.00023970    0.00000111   -0.00049480
     atom    8 type  1   force =     0.00007765   -0.00000159    0.00326895
     atom    9 type  1   force =    -0.00011854    0.00000033    0.00001349
     atom   10 type  1   force =    -0.00009196   -0.00000187   -0.00002380
     atom   11 type  1   force =     0.00055668    0.00000174   -0.00216227
     atom   12 type  1   force =     0.00013020   -0.00000048    0.00005894

     Total force =     0.005519     Total SCF correction =     0.000252


     entering subroutine stress ...

          total   stress  (Ry/bohr**3)                   (kbar)     P=    9.75
   0.00006905   0.00000003  -0.00000125         10.16      0.00     -0.18
   0.00000003   0.00006412   0.00000001          0.00      9.43      0.00
  -0.00000125   0.00000001   0.00006562         -0.18      0.00      9.65


     BFGS Geometry Optimization

     number of scf cycles    =   1
     number of bfgs steps    =   0

     enthalpy new            =    -301.7000546047 Ry

     new trust radius        =       0.2042161790 bohr
     new conv_thr            =       0.0000010000 Ry

     new unit-cell volume =    900.69427 a.u.^3 (   133.46912 Ang^3 )

CELL_PARAMETERS (alat= 11.28030000)
   0.967737053   0.000000735  -0.000031358
   0.000000444   0.584728993   0.000000214
  -0.000035937   0.000000406   1.108928260

ATOMIC_POSITIONS (crystal)
Ca       0.239970004   0.249832148   0.109866054
Ca       0.259856971  -0.249896140   0.609789862
Ca       0.740174914   0.249896103   0.390053242
Ca      -0.240013921  -0.249832018  -0.109844957
H        0.355658372   0.250000203   0.426565475
H        0.144325795  -0.250000185   0.926519229
H        0.855678751   0.250000162   0.073461724
H       -0.355693117  -0.250000233  -0.429247127
H        0.975389492   0.250000049   0.676501044
H       -0.475408152  -0.250000274   1.176498159
H        1.475449350   0.250000255  -0.173667265
H       -0.975388458  -0.250000070  -0.676495440



     Writing output data file CaH2_ambient.save
     NEW-OLD atomic charge density approx. for the potential
     NEW k-points: (use verbosity='high' to print them)
     extrapolated charge   43.85498, renormalised to   48.00000

     total cpu time spent up to now is      694.5 secs

     per-process dynamical memory:    23.0 Mb

     Self-consistent Calculation

     iteration #  1     ecut=    40.00 Ry     beta=0.30
     Davidson diagonalization with overlap
     ethr =  1.00E-06,  avg # of iterations =  6.0

     total cpu time spent up to now is      810.3 secs

     total energy              =    -302.76839274 Ry
     Harris-Foulkes estimate   =    -308.77985668 Ry
     estimated scf accuracy    <       0.52894184 Ry

     iteration #  2     ecut=    40.00 Ry     beta=0.30
     Davidson diagonalization with overlap
     ethr =  1.10E-03,  avg # of iterations =  2.0

     total cpu time spent up to now is      878.7 secs

     total energy              =    -303.03630583 Ry
     Harris-Foulkes estimate   =    -303.04698536 Ry
     estimated scf accuracy    <       0.04217479 Ry

     iteration #  3     ecut=    40.00 Ry     beta=0.30
     Davidson diagonalization with overlap
     ethr =  8.79E-05,  avg # of iterations =  1.0

     total cpu time spent up to now is      922.6 secs

     total energy              =    -303.01953325 Ry
     Harris-Foulkes estimate   =    -303.03728838 Ry
     estimated scf accuracy    <       0.02372945 Ry

     iteration #  4     ecut=    40.00 Ry     beta=0.30
     Davidson diagonalization with overlap
     ethr =  4.94E-05,  avg # of iterations =  2.0

     total cpu time spent up to now is      990.1 secs

     total energy              =    -303.02559967 Ry
     Harris-Foulkes estimate   =    -303.02552178 Ry
     estimated scf accuracy    <       0.00143543 Ry

     iteration #  5     ecut=    40.00 Ry     beta=0.30
     Davidson diagonalization with overlap
     ethr =  2.99E-06,  avg # of iterations =  1.0

     total cpu time spent up to now is     1033.5 secs

     total energy              =    -303.02535708 Ry
     Harris-Foulkes estimate   =    -303.02562965 Ry
     estimated scf accuracy    <       0.00055745 Ry

     iteration #  6     ecut=    40.00 Ry     beta=0.30
     Davidson diagonalization with overlap
     ethr =  1.16E-06,  avg # of iterations =  2.0

     total cpu time spent up to now is     1104.1 secs

     total energy              =    -303.02544591 Ry
     Harris-Foulkes estimate   =    -303.02543789 Ry
     estimated scf accuracy    <       0.00000903 Ry

     iteration #  7     ecut=    40.00 Ry     beta=0.30
     Davidson diagonalization with overlap
     ethr =  1.88E-08,  avg # of iterations =  3.0

     total cpu time spent up to now is     1182.7 secs

     total energy              =    -303.02544029 Ry
     Harris-Foulkes estimate   =    -303.02544941 Ry
     estimated scf accuracy    <       0.00002133 Ry

     iteration #  8     ecut=    40.00 Ry     beta=0.30
     Davidson diagonalization with overlap
     ethr =  1.88E-08,  avg # of iterations =  2.0

     total cpu time spent up to now is     1254.8 secs

     End of self-consistent calculation

     Number of k-points >= 100: set verbosity='high' to print the bands.

!    total energy              =    -303.02544271 Ry
     Harris-Foulkes estimate   =    -303.02544315 Ry
     estimated scf accuracy    <       0.00000074 Ry

     The total energy is the sum of the following terms:

     one-electron contribution =    -111.45106104 Ry
     hartree contribution      =      64.87607344 Ry
     xc contribution           =     -46.90652188 Ry
     ewald contribution        =    -209.54393323 Ry

     convergence has been achieved in   8 iterations

     Forces acting on atoms (Ry/au):

     atom    1 type  2   force =     0.00155658   -0.00080021    0.00242877
     atom    2 type  2   force =    -0.00269811    0.00043041    0.00172624
     atom    3 type  2   force =     0.00317169   -0.00042949   -0.00327409
     atom    4 type  2   force =    -0.00218816    0.00080640   -0.00255383
     atom    5 type  1   force =    -0.00127930    0.00004102    0.00042738
     atom    6 type  1   force =     0.00116289   -0.00006880   -0.00002797
     atom    7 type  1   force =    -0.00109891    0.00006745   -0.00021273
     atom    8 type  1   force =     0.00095746   -0.00004425    0.00378382
     atom    9 type  1   force =     0.00012894    0.00001179    0.00311680
     atom   10 type  1   force =    -0.00028969   -0.00001823    0.00312055
     atom   11 type  1   force =     0.00070843    0.00001710   -0.00540785
     atom   12 type  1   force =    -0.00013182   -0.00001320   -0.00312709

     Total force =     0.011450     Total SCF correction =     0.000331


     entering subroutine stress ...

          total   stress  (Ry/bohr**3)                   (kbar)     P=   77.60
   0.00050813   0.00000020  -0.00000285         74.75      0.03     -0.42
   0.00000020   0.00053559   0.00000019          0.03     78.79      0.03
  -0.00000285   0.00000019   0.00053892         -0.42      0.03     79.28


     number of scf cycles    =   2
     number of bfgs steps    =   1

     enthalpy old            =    -301.7000546047 Ry
     enthalpy new            =    -301.8008834688 Ry

     CASE: enthalpy_new < enthalpy_old

     new trust radius        =       0.3013481222 bohr
     new conv_thr            =       0.0000000541 Ry

     new unit-cell volume =    774.49869 a.u.^3 (   114.76886 Ang^3 )

CELL_PARAMETERS (alat= 11.28030000)
   0.919151787   0.000012211  -0.000195112
   0.000007380   0.556308678   0.000006713
  -0.000223680   0.000012730   1.055250796

ATOMIC_POSITIONS (crystal)
Ca       0.240294227   0.249555336   0.110307507
Ca       0.259293912  -0.249747178   0.610103192
Ca       0.740836847   0.249747458   0.389457627
Ca      -0.240469997  -0.249553070  -0.110309035
H        0.355391540   0.250014349   0.426643540
H        0.144568280  -0.250023909   0.926514237
H        0.855449623   0.250023422   0.073422848
H       -0.355493569  -0.250015491  -0.428557764
H        0.975416288   0.250004117   0.677067798
H       -0.475468588  -0.250006562   1.177065581
H        1.475597285   0.250006152  -0.174651494
H       -0.975415849  -0.250004624  -0.677064036



     Writing output data file CaH2_ambient.save
     NEW-OLD atomic charge density approx. for the potential
     NEW k-points: (use verbosity='high' to print them)
     extrapolated charge   41.48248, renormalised to   48.00000

     total cpu time spent up to now is     1347.9 secs

     per-process dynamical memory:    23.0 Mb

     Self-consistent Calculation

     iteration #  1     ecut=    40.00 Ry     beta=0.30
     Davidson diagonalization with overlap
     ethr =  1.00E-06,  avg # of iterations =  6.6

     total cpu time spent up to now is     1489.2 secs

     total energy              =    -302.36763041 Ry
     Harris-Foulkes estimate   =    -310.42948292 Ry
     estimated scf accuracy    <       1.38738233 Ry

     iteration #  2     ecut=    40.00 Ry     beta=0.30
     Davidson diagonalization with overlap
     ethr =  2.89E-03,  avg # of iterations =  2.0

     total cpu time spent up to now is     1560.2 secs

     total energy              =    -302.93887790 Ry
     Harris-Foulkes estimate   =    -302.98102223 Ry
     estimated scf accuracy    <       0.14776586 Ry

     iteration #  3     ecut=    40.00 Ry     beta=0.30
     Davidson diagonalization with overlap
     ethr =  3.08E-04,  avg # of iterations =  1.0

     total cpu time spent up to now is     1607.3 secs

     total energy              =    -302.88408523 Ry
     Harris-Foulkes estimate   =    -302.94243498 Ry
     estimated scf accuracy    <       0.07527588 Ry

     iteration #  4     ecut=    40.00 Ry     beta=0.30
     Davidson diagonalization with overlap
     ethr =  1.57E-04,  avg # of iterations =  2.0

     total cpu time spent up to now is     1682.3 secs

     total energy              =    -302.90528747 Ry
     Harris-Foulkes estimate   =    -302.90536568 Ry
     estimated scf accuracy    <       0.00589937 Ry

     iteration #  5     ecut=    40.00 Ry     beta=0.30
     Davidson diagonalization with overlap
     ethr =  1.23E-05,  avg # of iterations =  1.0

     total cpu time spent up to now is     1730.2 secs

     total energy              =    -302.90392957 Ry
     Harris-Foulkes estimate   =    -302.90536019 Ry
     estimated scf accuracy    <       0.00210526 Ry

     iteration #  6     ecut=    40.00 Ry     beta=0.30
     Davidson diagonalization with overlap
     ethr =  4.39E-06,  avg # of iterations =  2.0

     total cpu time spent up to now is     1805.0 secs

     total energy              =    -302.90447280 Ry
     Harris-Foulkes estimate   =    -302.90446586 Ry
     estimated scf accuracy    <       0.00009082 Ry

     iteration #  7     ecut=    40.00 Ry     beta=0.30
     Davidson diagonalization with overlap
     ethr =  1.89E-07,  avg # of iterations =  1.0

     total cpu time spent up to now is     1855.0 secs

     total energy              =    -302.90443799 Ry
     Harris-Foulkes estimate   =    -302.90447336 Ry
     estimated scf accuracy    <       0.00009557 Ry

     iteration #  8     ecut=    40.00 Ry     beta=0.30
     Davidson diagonalization with overlap
     ethr =  1.89E-07,  avg # of iterations =  2.0

     total cpu time spent up to now is     1915.1 secs

     total energy              =    -302.90443844 Ry
     Harris-Foulkes estimate   =    -302.90444545 Ry
     estimated scf accuracy    <       0.00001198 Ry

     iteration #  9     ecut=    40.00 Ry     beta=0.30
     Davidson diagonalization with overlap
     ethr =  2.50E-08,  avg # of iterations =  2.0

     total cpu time spent up to now is     1988.0 secs

     total energy              =    -302.90444020 Ry
     Harris-Foulkes estimate   =    -302.90444023 Ry
     estimated scf accuracy    <       0.00000048 Ry

     iteration # 10     ecut=    40.00 Ry     beta=0.30
     Davidson diagonalization with overlap
     ethr =  9.95E-10,  avg # of iterations =  1.4

     total cpu time spent up to now is     2033.9 secs

     total energy              =    -302.90444013 Ry
     Harris-Foulkes estimate   =    -302.90444021 Ry
     estimated scf accuracy    <       0.00000016 Ry

     iteration # 11     ecut=    40.00 Ry     beta=0.30
     Davidson diagonalization with overlap
     ethr =  3.30E-10,  avg # of iterations =  2.0

     total cpu time spent up to now is     2104.3 secs

     End of self-consistent calculation

     Number of k-points >= 100: set verbosity='high' to print the bands.

!    total energy              =    -302.90444016 Ry
     Harris-Foulkes estimate   =    -302.90444017 Ry
     estimated scf accuracy    <          4.4E-09 Ry

     The total energy is the sum of the following terms:

     one-electron contribution =     -95.06509501 Ry
     hartree contribution      =      59.92695713 Ry
     xc contribution           =     -47.39287576 Ry
     ewald contribution        =    -220.37342653 Ry

     convergence has been achieved in  11 iterations

     Forces acting on atoms (Ry/au):

     atom    1 type  2   force =     0.00497646   -0.00031133    0.00655036
     atom    2 type  2   force =    -0.00481457   -0.00002455    0.00665051
     atom    3 type  2   force =     0.00508190    0.00002922   -0.00678101
     atom    4 type  2   force =    -0.00544582    0.00033371   -0.00713361
     atom    5 type  1   force =    -0.00283723    0.00014092    0.00030657
     atom    6 type  1   force =     0.00299055   -0.00024649    0.00007845
     atom    7 type  1   force =    -0.00293103    0.00024087   -0.00047079
     atom    8 type  1   force =     0.00282892   -0.00014983    0.00323225
     atom    9 type  1   force =     0.00027562    0.00006801    0.00856780
     atom   10 type  1   force =    -0.00032458   -0.00009733    0.00860504
     atom   11 type  1   force =     0.00050507    0.00009208   -0.01085295
     atom   12 type  1   force =    -0.00030529   -0.00007528   -0.00875260

     Total force =     0.025972     Total SCF correction =     0.000133


     entering subroutine stress ...

          total   stress  (Ry/bohr**3)                   (kbar)     P=  219.55
   0.00142398   0.00000049  -0.00000361        209.48      0.07     -0.53
   0.00000049   0.00151487   0.00000065          0.07    222.85      0.10
  -0.00000361   0.00000065   0.00153865         -0.53      0.10    226.34


     number of scf cycles    =   3
     number of bfgs steps    =   2

     enthalpy old            =    -301.8008834688 Ry
     enthalpy new            =    -301.8514529688 Ry

     CASE: enthalpy_new < enthalpy_old

     new trust radius        =       0.0387625648 bohr
     new conv_thr            =       0.0000001085 Ry

     new unit-cell volume =    788.72245 a.u.^3 (   116.87661 Ang^3 )

CELL_PARAMETERS (alat= 11.28030000)
   0.923555303   0.000020490  -0.000250514
   0.000012387   0.559924869   0.000013504
  -0.000287544   0.000025613   1.062599529

ATOMIC_POSITIONS (crystal)
Ca       0.240628013   0.249536724   0.110686899
Ca       0.258987199  -0.249759889   0.610497477
Ca       0.741156027   0.249760702   0.389073928
Ca      -0.240828487  -0.249531950  -0.110723276
H        0.355206562   0.250030097   0.426657692
H        0.144765841  -0.250051526   0.926519548
H        0.855255429   0.250050404   0.073395911
H       -0.355304755  -0.250032215  -0.428401862
H        0.975433995   0.250011922   0.677565081
H       -0.475487828  -0.250017671   1.177565143
H        1.475623636   0.250016662  -0.175263807
H       -0.975435633  -0.250013259  -0.677572736



     Writing output data file CaH2_ambient.save
     NEW-OLD atomic charge density approx. for the potential
     NEW k-points: (use verbosity='high' to print them)
     extrapolated charge   48.72136, renormalised to   48.00000

     total cpu time spent up to now is     2197.2 secs

     per-process dynamical memory:    23.0 Mb

     Self-consistent Calculation

     iteration #  1     ecut=    40.00 Ry     beta=0.30
     Davidson diagonalization with overlap
     ethr =  1.00E-06,  avg # of iterations =  4.0

     total cpu time spent up to now is     2311.7 secs

     total energy              =    -302.91607940 Ry
     Harris-Foulkes estimate   =    -302.02443462 Ry
     estimated scf accuracy    <       0.01314235 Ry

     iteration #  2     ecut=    40.00 Ry     beta=0.30
     Davidson diagonalization with overlap
     ethr =  2.74E-05,  avg # of iterations =  2.0

     total cpu time spent up to now is     2385.6 secs

     total energy              =    -302.92527793 Ry
     Harris-Foulkes estimate   =    -302.92537794 Ry
     estimated scf accuracy    <       0.00049891 Ry

     iteration #  3     ecut=    40.00 Ry     beta=0.30
     Davidson diagonalization with overlap
     ethr =  1.04E-06,  avg # of iterations =  1.1

     total cpu time spent up to now is     2436.1 secs

     total energy              =    -302.92509498 Ry
     Harris-Foulkes estimate   =    -302.92529054 Ry
     estimated scf accuracy    <       0.00030984 Ry

     iteration #  4     ecut=    40.00 Ry     beta=0.30
     Davidson diagonalization with overlap
     ethr =  6.45E-07,  avg # of iterations =  2.0

     total cpu time spent up to now is     2499.6 secs

     total energy              =    -302.92515245 Ry
     Harris-Foulkes estimate   =    -302.92515267 Ry
     estimated scf accuracy    <       0.00001236 Ry

     iteration #  5     ecut=    40.00 Ry     beta=0.30
     Davidson diagonalization with overlap
     ethr =  2.58E-08,  avg # of iterations =  1.4

     total cpu time spent up to now is     2547.7 secs

     total energy              =    -302.92515280 Ry
     Harris-Foulkes estimate   =    -302.92515283 Ry
     estimated scf accuracy    <       0.00000456 Ry

     iteration #  6     ecut=    40.00 Ry     beta=0.30
     Davidson diagonalization with overlap
     ethr =  9.50E-09,  avg # of iterations =  1.0

     total cpu time spent up to now is     2594.1 secs

     End of self-consistent calculation

     Number of k-points >= 100: set verbosity='high' to print the bands.

!    total energy              =    -302.92515297 Ry
     Harris-Foulkes estimate   =    -302.92515296 Ry
     estimated scf accuracy    <       0.00000008 Ry

     The total energy is the sum of the following terms:

     one-electron contribution =     -97.05442934 Ry
     hartree contribution      =      60.50928393 Ry
     xc contribution           =     -47.32965066 Ry
     ewald contribution        =    -219.05035690 Ry

     convergence has been achieved in   6 iterations

     Forces acting on atoms (Ry/au):

     atom    1 type  2   force =     0.00394925   -0.00044096    0.00436871
     atom    2 type  2   force =    -0.00390179   -0.00000291    0.00447721
     atom    3 type  2   force =     0.00404539    0.00000684   -0.00456896
     atom    4 type  2   force =    -0.00425535    0.00046577   -0.00479979
     atom    5 type  1   force =    -0.00270799    0.00011310    0.00094411
     atom    6 type  1   force =     0.00281913   -0.00021524    0.00071017
     atom    7 type  1   force =    -0.00278983    0.00020974   -0.00107735
     atom    8 type  1   force =     0.00271277   -0.00012196    0.00218236
     atom    9 type  1   force =    -0.00001411    0.00005626    0.00723900
     atom   10 type  1   force =     0.00000074   -0.00008854    0.00727239
     atom   11 type  1   force =     0.00014022    0.00008259   -0.00934917
     atom   12 type  1   force =     0.00000158   -0.00006469   -0.00739866

     Total force =     0.020835     Total SCF correction =     0.000303


     entering subroutine stress ...

          total   stress  (Ry/bohr**3)                   (kbar)     P=  198.55
   0.00129720   0.00000034  -0.00000226        190.82      0.05     -0.33
   0.00000034   0.00136118   0.00000058          0.05    200.24      0.09
  -0.00000226   0.00000058   0.00139080         -0.33      0.09    204.59


     number of scf cycles    =   4
     number of bfgs steps    =   3

     enthalpy old            =    -301.8514529688 Ry
     enthalpy new            =    -301.8528275519 Ry

     CASE: enthalpy_new < enthalpy_old

     new trust radius        =       0.0112906931 bohr
     new conv_thr            =       0.0000000935 Ry

     new unit-cell volume =    789.85407 a.u.^3 (   117.04430 Ang^3 )

CELL_PARAMETERS (alat= 11.28030000)
   0.922382880   0.000031060  -0.000322725
   0.000018779   0.560428849   0.000023949
  -0.000370858   0.000045431   1.064518591

ATOMIC_POSITIONS (crystal)
Ca       0.241089524   0.249458806   0.111150335
Ca       0.258533046  -0.249761224   0.610971869
Ca       0.741628332   0.249762792   0.388590349
Ca      -0.241327060  -0.249449486  -0.111231412
H        0.354900551   0.250051999   0.426740408
H        0.145085128  -0.250092553   0.926579305
H        0.854939972   0.250090400   0.073299669
H       -0.354998411  -0.250055755  -0.428171779
H        0.975437386   0.250022802   0.678297129
H       -0.475493765  -0.250034417   1.178300524
H        1.475646035   0.250032312  -0.176205515
H       -0.975440739  -0.250025676  -0.678320882



     Writing output data file CaH2_ambient.save
     NEW-OLD atomic charge density approx. for the potential
     NEW k-points: (use verbosity='high' to print them)
     extrapolated charge   48.05731, renormalised to   48.00000

     total cpu time spent up to now is     2685.1 secs

     per-process dynamical memory:    23.0 Mb

     Self-consistent Calculation

     iteration #  1     ecut=    40.00 Ry     beta=0.30
     Davidson diagonalization with overlap
     ethr =  1.00E-06,  avg # of iterations =  4.0

     total cpu time spent up to now is     2783.1 secs

     total energy              =    -302.92721350 Ry
     Harris-Foulkes estimate   =    -302.85600127 Ry
     estimated scf accuracy    <       0.00011260 Ry

     iteration #  2     ecut=    40.00 Ry     beta=0.30
     Davidson diagonalization with overlap
     ethr =  2.35E-07,  avg # of iterations =  2.0

     total cpu time spent up to now is     2852.8 secs

     total energy              =    -302.92727031 Ry
     Harris-Foulkes estimate   =    -302.92727200 Ry
     estimated scf accuracy    <       0.00001563 Ry

     iteration #  3     ecut=    40.00 Ry     beta=0.30
     Davidson diagonalization with overlap
     ethr =  3.26E-08,  avg # of iterations =  1.0

     total cpu time spent up to now is     2894.8 secs

     total energy              =    -302.92726717 Ry
     Harris-Foulkes estimate   =    -302.92727045 Ry
     estimated scf accuracy    <       0.00000857 Ry

     iteration #  4     ecut=    40.00 Ry     beta=0.30
     Davidson diagonalization with overlap
     ethr =  1.79E-08,  avg # of iterations =  2.0

     total cpu time spent up to now is     2945.9 secs

     total energy              =    -302.92726821 Ry
     Harris-Foulkes estimate   =    -302.92726813 Ry
     estimated scf accuracy    <       0.00000025 Ry

     iteration #  5     ecut=    40.00 Ry     beta=0.30
     Davidson diagonalization with overlap
     ethr =  5.18E-10,  avg # of iterations =  2.0

     total cpu time spent up to now is     2992.7 secs

     total energy              =    -302.92726819 Ry
     Harris-Foulkes estimate   =    -302.92726823 Ry
     estimated scf accuracy    <       0.00000013 Ry

     iteration #  6     ecut=    40.00 Ry     beta=0.30
     Davidson diagonalization with overlap
     ethr =  2.79E-10,  avg # of iterations =  2.0

     total cpu time spent up to now is     3050.7 secs

     End of self-consistent calculation

     Number of k-points >= 100: set verbosity='high' to print the bands.

!    total energy              =    -302.92726821 Ry
     Harris-Foulkes estimate   =    -302.92726820 Ry
     estimated scf accuracy    <          4.8E-09 Ry

     The total energy is the sum of the following terms:

     one-electron contribution =     -97.18362146 Ry
     hartree contribution      =      60.53808559 Ry
     xc contribution           =     -47.32292313 Ry
     ewald contribution        =    -218.95880921 Ry

     convergence has been achieved in   6 iterations

     Forces acting on atoms (Ry/au):

     atom    1 type  2   force =     0.00331591   -0.00048404    0.00274963
     atom    2 type  2   force =    -0.00321878   -0.00004018    0.00291451
     atom    3 type  2   force =     0.00320269    0.00004238   -0.00281377
     atom    4 type  2   force =    -0.00341757    0.00050611   -0.00300256
     atom    5 type  1   force =    -0.00275107    0.00009553    0.00148690
     atom    6 type  1   force =     0.00285165   -0.00021375    0.00130068
     atom    7 type  1   force =    -0.00285322    0.00021045   -0.00163467
     atom    8 type  1   force =     0.00280634   -0.00010305    0.00100562
     atom    9 type  1   force =    -0.00034022    0.00005409    0.00648079
     atom   10 type  1   force =     0.00037479   -0.00009390    0.00650922
     atom   11 type  1   force =    -0.00031382    0.00008895   -0.00836274
     atom   12 type  1   force =     0.00034328   -0.00006258   -0.00663361

     Total force =     0.017748     Total SCF correction =     0.000159


     entering subroutine stress ...

          total   stress  (Ry/bohr**3)                   (kbar)     P=  196.22
   0.00129150   0.00000021  -0.00000083        189.99      0.03     -0.12
   0.00000021   0.00133794   0.00000064          0.03    196.82      0.09
  -0.00000083   0.00000064   0.00137225         -0.12      0.09    201.87


     number of scf cycles    =   5
     number of bfgs steps    =   4

     enthalpy old            =    -301.8528275519 Ry
     enthalpy new            =    -301.8534042529 Ry

     CASE: enthalpy_new < enthalpy_old


     WARNING: bfgs curvature condition failed, Theta= 0.991
     new trust radius        =       0.0124422114 bohr
     new conv_thr            =       0.0000000577 Ry

     new unit-cell volume =    789.45574 a.u.^3 (   116.98527 Ang^3 )

CELL_PARAMETERS (alat= 11.28030000)
   0.920547526   0.000040775  -0.000378251
   0.000024655   0.560521077   0.000036926
  -0.000435287   0.000070057   1.065927707

ATOMIC_POSITIONS (crystal)
Ca       0.241578712   0.249360407   0.111581080
Ca       0.258054690  -0.249766635   0.611418352
Ca       0.742115869   0.249768854   0.388144503
Ca      -0.241844119  -0.249346149  -0.111701965
H        0.354539134   0.250075301   0.426875133
H        0.145460933  -0.250140331   0.926689985
H        0.854566276   0.250137268   0.073148483
H       -0.354633097  -0.250080787  -0.427980582
H        0.975415621   0.250035236   0.679101741
H       -0.475471457  -0.250054669   1.179108661
H        1.475637175   0.250051416  -0.177241597
H       -0.975419737  -0.250039909  -0.679143795



     Writing output data file CaH2_ambient.save
     NEW-OLD atomic charge density approx. for the potential
     NEW k-points: (use verbosity='high' to print them)
     extrapolated charge   47.97982, renormalised to   48.00000

     total cpu time spent up to now is     3143.1 secs

     per-process dynamical memory:    23.0 Mb

     Self-consistent Calculation

     iteration #  1     ecut=    40.00 Ry     beta=0.30
     Davidson diagonalization with overlap
     ethr =  1.00E-06,  avg # of iterations =  4.0

     Threshold (ethr) on eigenvalues was too large:
     Diagonalizing with lowered threshold

     Davidson diagonalization with overlap
     ethr =  6.75E-08,  avg # of iterations =  1.5

     total cpu time spent up to now is     3285.9 secs

     total energy              =    -302.92727068 Ry
     Harris-Foulkes estimate   =    -302.95233418 Ry
     estimated scf accuracy    <       0.00003228 Ry

     iteration #  2     ecut=    40.00 Ry     beta=0.30
     Davidson diagonalization with overlap
     ethr =  6.73E-08,  avg # of iterations =  2.0

     total cpu time spent up to now is     3351.2 secs

     total energy              =    -302.92727598 Ry
     Harris-Foulkes estimate   =    -302.92727770 Ry
     estimated scf accuracy    <       0.00001530 Ry

     iteration #  3     ecut=    40.00 Ry     beta=0.30
     Davidson diagonalization with overlap
     ethr =  3.19E-08,  avg # of iterations =  1.0

     total cpu time spent up to now is     3400.0 secs

     total energy              =    -302.92727419 Ry
     Harris-Foulkes estimate   =    -302.92727617 Ry
     estimated scf accuracy    <       0.00000653 Ry

     iteration #  4     ecut=    40.00 Ry     beta=0.30
     Davidson diagonalization with overlap
     ethr =  1.36E-08,  avg # of iterations =  2.0

     total cpu time spent up to now is     3452.8 secs

     total energy              =    -302.92727481 Ry
     Harris-Foulkes estimate   =    -302.92727476 Ry
     estimated scf accuracy    <       0.00000012 Ry

     iteration #  5     ecut=    40.00 Ry     beta=0.30
     Davidson diagonalization with overlap
     ethr =  2.40E-10,  avg # of iterations =  2.0

     total cpu time spent up to now is     3505.0 secs

     End of self-consistent calculation

     Number of k-points >= 100: set verbosity='high' to print the bands.

!    total energy              =    -302.92727480 Ry
     Harris-Foulkes estimate   =    -302.92727482 Ry
     estimated scf accuracy    <       0.00000005 Ry

     The total energy is the sum of the following terms:

     one-electron contribution =     -97.09967917 Ry
     hartree contribution      =      60.50365229 Ry
     xc contribution           =     -47.32267884 Ry
     ewald contribution        =    -219.00856908 Ry

     convergence has been achieved in   5 iterations

     Forces acting on atoms (Ry/au):

     atom    1 type  2   force =     0.00278874   -0.00047607    0.00132847
     atom    2 type  2   force =    -0.00258458   -0.00007451    0.00154482
     atom    3 type  2   force =     0.00245713    0.00007408   -0.00121358
     atom    4 type  2   force =    -0.00271449    0.00048904   -0.00146357
     atom    5 type  1   force =    -0.00282057    0.00007796    0.00186887
     atom    6 type  1   force =     0.00290654   -0.00021722    0.00172664
     atom    7 type  1   force =    -0.00293792    0.00021803   -0.00202152
     atom    8 type  1   force =     0.00290779   -0.00008263   -0.00000050
     atom    9 type  1   force =    -0.00065768    0.00005291    0.00577295
     atom   10 type  1   force =     0.00072782   -0.00010081    0.00579590
     atom   11 type  1   force =    -0.00074325    0.00009877   -0.00742740
     atom   12 type  1   force =     0.00067048   -0.00005957   -0.00591106

     Total force =     0.015469     Total SCF correction =     0.000541


     entering subroutine stress ...

          total   stress  (Ry/bohr**3)                   (kbar)     P=  196.03
   0.00129910   0.00000008   0.00000039        191.10      0.01      0.06
   0.00000008   0.00133168   0.00000073          0.01    195.90      0.11
   0.00000039   0.00000073   0.00136693          0.06      0.11    201.08


     number of scf cycles    =   6
     number of bfgs steps    =   5

     enthalpy old            =    -301.8534042529 Ry
     enthalpy new            =    -301.8539524064 Ry

     CASE: enthalpy_new < enthalpy_old

     new trust radius        =       0.0186879922 bohr
     new conv_thr            =       0.0000000548 Ry

     new unit-cell volume =    788.31316 a.u.^3 (   116.81596 Ang^3 )

CELL_PARAMETERS (alat= 11.28030000)
   0.917717916   0.000052053  -0.000426160
   0.000031485   0.560450101   0.000059554
  -0.000491825   0.000112987   1.067802087

ATOMIC_POSITIONS (crystal)
Ca       0.242292311   0.249204033   0.112108979
Ca       0.257371603  -0.249782200   0.611976961
Ca       0.742799623   0.249784901   0.387612364
Ca      -0.242579992  -0.249183820  -0.112280384
H        0.353952620   0.250108790   0.427134386
H        0.146068364  -0.250217424   0.926915445
H        0.853958405   0.250213784   0.072862543
H       -0.354036468  -0.250116434  -0.427787222
H        0.975340131   0.250054861   0.680309296
H       -0.475390651  -0.250088482   1.180321204
H        1.475568274   0.250084010  -0.178794640
H       -0.975344219  -0.250062020  -0.680378932



     Writing output data file CaH2_ambient.save
     NEW-OLD atomic charge density approx. for the potential
     NEW k-points: (use verbosity='high' to print them)
     extrapolated charge   47.94202, renormalised to   48.00000

     total cpu time spent up to now is     3601.6 secs

     per-process dynamical memory:    23.0 Mb

     Self-consistent Calculation

     iteration #  1     ecut=    40.00 Ry     beta=0.30
     Davidson diagonalization with overlap
     ethr =  1.00E-06,  avg # of iterations =  4.0

     total cpu time spent up to now is     3725.3 secs

     total energy              =    -302.92634413 Ry
     Harris-Foulkes estimate   =    -302.99817858 Ry
     estimated scf accuracy    <       0.00013053 Ry

     iteration #  2     ecut=    40.00 Ry     beta=0.30
     Davidson diagonalization with overlap
     ethr =  2.72E-07,  avg # of iterations =  2.0

     total cpu time spent up to now is     3798.0 secs

     total energy              =    -302.92639816 Ry
     Harris-Foulkes estimate   =    -302.92640233 Ry
     estimated scf accuracy    <       0.00003717 Ry

     iteration #  3     ecut=    40.00 Ry     beta=0.30
     Davidson diagonalization with overlap
     ethr =  7.74E-08,  avg # of iterations =  1.0

     total cpu time spent up to now is     3841.3 secs

     total energy              =    -302.92639205 Ry
     Harris-Foulkes estimate   =    -302.92639844 Ry
     estimated scf accuracy    <       0.00001940 Ry

     iteration #  4     ecut=    40.00 Ry     beta=0.30
     Davidson diagonalization with overlap
     ethr =  4.04E-08,  avg # of iterations =  2.0

     total cpu time spent up to now is     3896.5 secs

     total energy              =    -302.92639383 Ry
     Harris-Foulkes estimate   =    -302.92639372 Ry
     estimated scf accuracy    <       0.00000028 Ry

     iteration #  5     ecut=    40.00 Ry     beta=0.30
     Davidson diagonalization with overlap
     ethr =  5.88E-10,  avg # of iterations =  2.0

     total cpu time spent up to now is     3949.1 secs

     total energy              =    -302.92639383 Ry
     Harris-Foulkes estimate   =    -302.92639386 Ry
     estimated scf accuracy    <       0.00000012 Ry

     iteration #  6     ecut=    40.00 Ry     beta=0.30
     Davidson diagonalization with overlap
     ethr =  2.46E-10,  avg # of iterations =  2.0

     total cpu time spent up to now is     4002.7 secs

     End of self-consistent calculation

     Number of k-points >= 100: set verbosity='high' to print the bands.

!    total energy              =    -302.92639384 Ry
     Harris-Foulkes estimate   =    -302.92639384 Ry
     estimated scf accuracy    <       0.00000001 Ry

     The total energy is the sum of the following terms:

     one-electron contribution =     -96.90122909 Ry
     hartree contribution      =      60.43144694 Ry
     xc contribution           =     -47.32476424 Ry
     ewald contribution        =    -219.13184745 Ry

     convergence has been achieved in   6 iterations

     Forces acting on atoms (Ry/au):

     atom    1 type  2   force =     0.00210575   -0.00041988   -0.00031487
     atom    2 type  2   force =    -0.00180144   -0.00011030   -0.00016004
     atom    3 type  2   force =     0.00152799    0.00010757    0.00062608
     atom    4 type  2   force =    -0.00182200    0.00040754    0.00046913
     atom    5 type  1   force =    -0.00286673    0.00005303    0.00213442
     atom    6 type  1   force =     0.00293160   -0.00021878    0.00209814
     atom    7 type  1   force =    -0.00298964    0.00022771   -0.00227493
     atom    8 type  1   force =     0.00299015   -0.00005129   -0.00116879
     atom    9 type  1   force =    -0.00106142    0.00005135    0.00478080
     atom   10 type  1   force =     0.00117509   -0.00010903    0.00480980
     atom   11 type  1   force =    -0.00127761    0.00011415   -0.00610117
     atom   12 type  1   force =     0.00108827   -0.00005208   -0.00489857

     Total force =     0.013315     Total SCF correction =     0.000252


     entering subroutine stress ...

          total   stress  (Ry/bohr**3)                   (kbar)     P=  196.54
   0.00131290  -0.00000010   0.00000192        193.13     -0.01      0.28
  -0.00000010   0.00133267   0.00000084         -0.01    196.04      0.12
   0.00000192   0.00000084   0.00136266          0.28      0.12    200.45


     number of scf cycles    =   7
     number of bfgs steps    =   6

     enthalpy old            =    -301.8539524064 Ry
     enthalpy new            =    -301.8546248697 Ry

     CASE: enthalpy_new < enthalpy_old

     new trust radius        =       0.0280809436 bohr
     new conv_thr            =       0.0000000610 Ry

     new unit-cell volume =    786.43182 a.u.^3 (   116.53717 Ang^3 )

CELL_PARAMETERS (alat= 11.28030000)
   0.913566083   0.000063216  -0.000441395
   0.000038277   0.560258897   0.000098512
  -0.000512816   0.000186856   1.070460167

ATOMIC_POSITIONS (crystal)
Ca       0.243335407   0.248964550   0.112735026
Ca       0.256392285  -0.249816191   0.612644957
Ca       0.743757721   0.249819100   0.387005510
Ca      -0.243627102  -0.248940869  -0.112949654
H        0.353002086   0.250156419   0.427591158
H        0.147049217  -0.250341797   0.927331451
H        0.852972718   0.250339211   0.072364374
H       -0.353064097  -0.250165980  -0.427634015
H        0.975157625   0.250086040   0.682122041
H       -0.475192892  -0.250144910   1.182142683
H        1.475376537   0.250140202  -0.181120092
H       -0.975159504  -0.250095775  -0.682233438



     Writing output data file CaH2_ambient.save
     NEW-OLD atomic charge density approx. for the potential
     NEW k-points: (use verbosity='high' to print them)
     extrapolated charge   47.90431, renormalised to   48.00000

     total cpu time spent up to now is     4094.9 secs

     per-process dynamical memory:    23.0 Mb

     Self-consistent Calculation

     iteration #  1     ecut=    40.00 Ry     beta=0.30
     Davidson diagonalization with overlap
     ethr =  1.00E-06,  avg # of iterations =  4.0

     total cpu time spent up to now is     4213.3 secs

     total energy              =    -302.92443047 Ry
     Harris-Foulkes estimate   =    -303.04256526 Ry
     estimated scf accuracy    <       0.00033801 Ry

     iteration #  2     ecut=    40.00 Ry     beta=0.30
     Davidson diagonalization with overlap
     ethr =  7.04E-07,  avg # of iterations =  2.0

     total cpu time spent up to now is     4289.4 secs

     total energy              =    -302.92457763 Ry
     Harris-Foulkes estimate   =    -302.92458857 Ry
     estimated scf accuracy    <       0.00008871 Ry

     iteration #  3     ecut=    40.00 Ry     beta=0.30
     Davidson diagonalization with overlap
     ethr =  1.85E-07,  avg # of iterations =  1.0

     total cpu time spent up to now is     4333.7 secs

     total energy              =    -302.92456207 Ry
     Harris-Foulkes estimate   =    -302.92457829 Ry
     estimated scf accuracy    <       0.00004674 Ry

     iteration #  4     ecut=    40.00 Ry     beta=0.30
     Davidson diagonalization with overlap
     ethr =  9.74E-08,  avg # of iterations =  2.0

     total cpu time spent up to now is     4386.2 secs

     total energy              =    -302.92456630 Ry
     Harris-Foulkes estimate   =    -302.92456610 Ry
     estimated scf accuracy    <       0.00000069 Ry

     iteration #  5     ecut=    40.00 Ry     beta=0.30
     Davidson diagonalization with overlap
     ethr =  1.43E-09,  avg # of iterations =  2.0

     total cpu time spent up to now is     4438.3 secs

     total energy              =    -302.92456629 Ry
     Harris-Foulkes estimate   =    -302.92456637 Ry
     estimated scf accuracy    <       0.00000028 Ry

     iteration #  6     ecut=    40.00 Ry     beta=0.30
     Davidson diagonalization with overlap
     ethr =  5.94E-10,  avg # of iterations =  2.0

     total cpu time spent up to now is     4489.9 secs

     End of self-consistent calculation

     Number of k-points >= 100: set verbosity='high' to print the bands.

!    total energy              =    -302.92456631 Ry
     Harris-Foulkes estimate   =    -302.92456632 Ry
     estimated scf accuracy    <       0.00000003 Ry

     The total energy is the sum of the following terms:

     one-electron contribution =     -96.58466004 Ry
     hartree contribution      =      60.31883267 Ry
     xc contribution           =     -47.32879266 Ry
     ewald contribution        =    -219.32994628 Ry

     convergence has been achieved in   6 iterations

     Forces acting on atoms (Ry/au):

     atom    1 type  2   force =     0.00122249   -0.00022776   -0.00223070
     atom    2 type  2   force =    -0.00080445   -0.00013059   -0.00212215
     atom    3 type  2   force =     0.00041620    0.00012660    0.00276907
     atom    4 type  2   force =    -0.00072628    0.00018115    0.00267297
     atom    5 type  1   force =    -0.00291403    0.00001664    0.00216515
     atom    6 type  1   force =     0.00293832   -0.00021451    0.00227190
     atom    7 type  1   force =    -0.00302183    0.00023220   -0.00226082
     atom    8 type  1   force =     0.00305324   -0.00000637   -0.00237421
     atom    9 type  1   force =    -0.00155119    0.00004630    0.00341753
     atom   10 type  1   force =     0.00169438   -0.00011893    0.00345900
     atom   11 type  1   force =    -0.00188975    0.00013328   -0.00427460
     atom   12 type  1   force =     0.00158290   -0.00003801   -0.00349313

     Total force =     0.012208     Total SCF correction =     0.000403


     entering subroutine stress ...

          total   stress  (Ry/bohr**3)                   (kbar)     P=  197.65
   0.00133330  -0.00000033   0.00000348        196.14     -0.05      0.51
  -0.00000033   0.00134091   0.00000093         -0.05    197.26      0.14
   0.00000348   0.00000093   0.00135648          0.51      0.14    199.54


     number of scf cycles    =   8
     number of bfgs steps    =   7

     enthalpy old            =    -301.8546248697 Ry
     enthalpy new            =    -301.8553551640 Ry

     CASE: enthalpy_new < enthalpy_old

     new trust radius        =       0.0422246143 bohr
     new conv_thr            =       0.0000000427 Ry

     new unit-cell volume =    783.69895 a.u.^3 (   116.13220 Ang^3 )

CELL_PARAMETERS (alat= 11.28030000)
   0.907646886   0.000068438  -0.000373829
   0.000041590   0.560008409   0.000165334
  -0.000443268   0.000313370   1.074177277

ATOMIC_POSITIONS (crystal)
Ca       0.244853771   0.248628159   0.113386194
Ca       0.255002000  -0.249880742   0.613357668
Ca       0.745085847   0.249883470   0.386428743
Ca      -0.245104834  -0.248609940  -0.113616962
H        0.351436581   0.250221961   0.428364632
H        0.148656247  -0.250544062   0.928063453
H        0.851351841   0.250546193   0.071530123
H       -0.351458001  -0.250231889  -0.427623676
H        0.974755537   0.250135428   0.684841841
H       -0.474758238  -0.250240682   1.184878697
H        1.474931472   0.250238612  -0.184596233
H       -0.974752223  -0.250146508  -0.685014480



     Writing output data file CaH2_ambient.save
     NEW-OLD atomic charge density approx. for the potential
     NEW k-points: (use verbosity='high' to print them)
     extrapolated charge   47.86052, renormalised to   48.00000

     total cpu time spent up to now is     4583.0 secs

     per-process dynamical memory:    23.0 Mb

     Self-consistent Calculation

     iteration #  1     ecut=    40.00 Ry     beta=0.30
     Davidson diagonalization with overlap
     ethr =  1.00E-06,  avg # of iterations =  4.2

     total cpu time spent up to now is     4704.9 secs

     total energy              =    -302.92118190 Ry
     Harris-Foulkes estimate   =    -303.09247826 Ry
     estimated scf accuracy    <       0.00074764 Ry

     iteration #  2     ecut=    40.00 Ry     beta=0.30
     Davidson diagonalization with overlap
     ethr =  1.56E-06,  avg # of iterations =  2.0

     total cpu time spent up to now is     4780.1 secs

     total energy              =    -302.92148922 Ry
     Harris-Foulkes estimate   =    -302.92151660 Ry
     estimated scf accuracy    <       0.00020658 Ry

     iteration #  3     ecut=    40.00 Ry     beta=0.30
     Davidson diagonalization with overlap
     ethr =  4.30E-07,  avg # of iterations =  1.0

     total cpu time spent up to now is     4827.1 secs

     total energy              =    -302.92145250 Ry
     Harris-Foulkes estimate   =    -302.92149070 Ry
     estimated scf accuracy    <       0.00010775 Ry

     iteration #  4     ecut=    40.00 Ry     beta=0.30
     Davidson diagonalization with overlap
     ethr =  2.24E-07,  avg # of iterations =  2.0

     total cpu time spent up to now is     4882.3 secs

     total energy              =    -302.92146183 Ry
     Harris-Foulkes estimate   =    -302.92146144 Ry
     estimated scf accuracy    <       0.00000142 Ry

     iteration #  5     ecut=    40.00 Ry     beta=0.30
     Davidson diagonalization with overlap
     ethr =  2.97E-09,  avg # of iterations =  2.0

     total cpu time spent up to now is     4940.2 secs

     total energy              =    -302.92146183 Ry
     Harris-Foulkes estimate   =    -302.92146198 Ry
     estimated scf accuracy    <       0.00000060 Ry

     iteration #  6     ecut=    40.00 Ry     beta=0.30
     Davidson diagonalization with overlap
     ethr =  1.25E-09,  avg # of iterations =  2.0

     total cpu time spent up to now is     4992.0 secs

     total energy              =    -302.92146189 Ry
     Harris-Foulkes estimate   =    -302.92146189 Ry
     estimated scf accuracy    <       0.00000005 Ry

     iteration #  7     ecut=    40.00 Ry     beta=0.30
     Davidson diagonalization with overlap
     ethr =  1.12E-10,  avg # of iterations =  1.8

     total cpu time spent up to now is     5038.6 secs

     End of self-consistent calculation

     Number of k-points >= 100: set verbosity='high' to print the bands.

!    total energy              =    -302.92146188 Ry
     Harris-Foulkes estimate   =    -302.92146189 Ry
     estimated scf accuracy    <       0.00000002 Ry

     The total energy is the sum of the following terms:

     one-electron contribution =     -96.12772848 Ry
     hartree contribution      =      60.15694885 Ry
     xc contribution           =     -47.33465025 Ry
     ewald contribution        =    -219.61603199 Ry

     convergence has been achieved in   7 iterations

     Forces acting on atoms (Ry/au):

     atom    1 type  2   force =     0.00000270    0.00014649   -0.00428177
     atom    2 type  2   force =     0.00035405   -0.00010696   -0.00428074
     atom    3 type  2   force =    -0.00081097    0.00010519    0.00493832
     atom    4 type  2   force =     0.00066560   -0.00021232    0.00511139
     atom    5 type  1   force =    -0.00291132   -0.00003691    0.00165065
     atom    6 type  1   force =     0.00286993   -0.00018219    0.00197834
     atom    7 type  1   force =    -0.00296214    0.00020058   -0.00164172
     atom    8 type  1   force =     0.00303783    0.00005247   -0.00333701
     atom    9 type  1   force =    -0.00205048    0.00002929    0.00157855
     atom   10 type  1   force =     0.00219096   -0.00012508    0.00164774
     atom   11 type  1   force =    -0.00245185    0.00014325   -0.00178363
     atom   12 type  1   force =     0.00206569   -0.00001381   -0.00158013

     Total force =     0.013189     Total SCF correction =     0.000370


     entering subroutine stress ...

          total   stress  (Ry/bohr**3)                   (kbar)     P=  199.27
   0.00135870  -0.00000061   0.00000467        199.87     -0.09      0.69
  -0.00000061   0.00135972   0.00000079         -0.09    200.02      0.12
   0.00000467   0.00000079   0.00134538          0.69      0.12    197.91


     number of scf cycles    =   9
     number of bfgs steps    =   8

     enthalpy old            =    -301.8553551640 Ry
     enthalpy new            =    -301.8559662577 Ry

     CASE: enthalpy_new < enthalpy_old

     new trust radius        =       0.0262697641 bohr
     new conv_thr            =       0.0000000511 Ry

     new unit-cell volume =    782.22174 a.u.^3 (   115.91330 Ang^3 )

CELL_PARAMETERS (alat= 11.28030000)
   0.904340501   0.000056807  -0.000235532
   0.000034840   0.560040056   0.000213469
  -0.000293481   0.000404109   1.076011600

ATOMIC_POSITIONS (crystal)
Ca       0.245727609   0.248473394   0.113444307
Ca       0.254226224  -0.249929512   0.613447546
Ca       0.745791195   0.249932235   0.386459821
Ca      -0.245902530  -0.248467623  -0.113617473
H        0.350281268   0.250253498   0.428908314
H        0.149830745  -0.250685758   0.928611779
H        0.850162659   0.250692872   0.070955163
H       -0.350270594  -0.250261543  -0.427852909
H        0.974348727   0.250167535   0.686526693
H       -0.474322797  -0.250314030   1.186579088
H        1.474469812   0.250315956  -0.186728817
H       -0.974342318  -0.250177025  -0.686733512



     Writing output data file CaH2_ambient.save
     NEW-OLD atomic charge density approx. for the potential
     NEW k-points: (use verbosity='high' to print them)
     extrapolated charge   47.92446, renormalised to   48.00000

     total cpu time spent up to now is     5131.8 secs

     per-process dynamical memory:    23.0 Mb

     Self-consistent Calculation

     iteration #  1     ecut=    40.00 Ry     beta=0.30
     Davidson diagonalization with overlap
     ethr =  1.00E-06,  avg # of iterations =  4.0

     total cpu time spent up to now is     5246.2 secs

     total energy              =    -302.91962645 Ry
     Harris-Foulkes estimate   =    -303.01206520 Ry
     estimated scf accuracy    <       0.00025578 Ry

     iteration #  2     ecut=    40.00 Ry     beta=0.30
     Davidson diagonalization with overlap
     ethr =  5.33E-07,  avg # of iterations =  2.0

     total cpu time spent up to now is     5316.8 secs

     total energy              =    -302.91971247 Ry
     Harris-Foulkes estimate   =    -302.91972450 Ry
     estimated scf accuracy    <       0.00008323 Ry

     iteration #  3     ecut=    40.00 Ry     beta=0.30
     Davidson diagonalization with overlap
     ethr =  1.73E-07,  avg # of iterations =  1.0

     total cpu time spent up to now is     5361.6 secs

     total energy              =    -302.91969803 Ry
     Harris-Foulkes estimate   =    -302.91971301 Ry
     estimated scf accuracy    <       0.00004189 Ry

     iteration #  4     ecut=    40.00 Ry     beta=0.30
     Davidson diagonalization with overlap
     ethr =  8.73E-08,  avg # of iterations =  2.0

     total cpu time spent up to now is     5414.8 secs

     total energy              =    -302.91970136 Ry
     Harris-Foulkes estimate   =    -302.91970123 Ry
     estimated scf accuracy    <       0.00000042 Ry

     iteration #  5     ecut=    40.00 Ry     beta=0.30
     Davidson diagonalization with overlap
     ethr =  8.72E-10,  avg # of iterations =  2.0

     total cpu time spent up to now is     5470.1 secs

     total energy              =    -302.91970138 Ry
     Harris-Foulkes estimate   =    -302.91970141 Ry
     estimated scf accuracy    <       0.00000018 Ry

     iteration #  6     ecut=    40.00 Ry     beta=0.30
     Davidson diagonalization with overlap
     ethr =  3.81E-10,  avg # of iterations =  2.0

     total cpu time spent up to now is     5520.6 secs

     End of self-consistent calculation

     Number of k-points >= 100: set verbosity='high' to print the bands.

!    total energy              =    -302.91970139 Ry
     Harris-Foulkes estimate   =    -302.91970139 Ry
     estimated scf accuracy    <       0.00000001 Ry

     The total energy is the sum of the following terms:

     one-electron contribution =     -95.87516451 Ry
     hartree contribution      =      60.06681236 Ry
     xc contribution           =     -47.33752552 Ry
     ewald contribution        =    -219.77382371 Ry

     convergence has been achieved in   6 iterations

     Forces acting on atoms (Ry/au):

     atom    1 type  2   force =    -0.00063035    0.00029819   -0.00458505
     atom    2 type  2   force =     0.00086618   -0.00006181   -0.00464439
     atom    3 type  2   force =    -0.00122251    0.00005940    0.00516356
     atom    4 type  2   force =     0.00119135   -0.00033476    0.00537906
     atom    5 type  1   force =    -0.00273851   -0.00006603    0.00080772
     atom    6 type  1   force =     0.00266391   -0.00012344    0.00126099
     atom    7 type  1   force =    -0.00271840    0.00012977   -0.00069540
     atom    8 type  1   force =     0.00283465    0.00007758   -0.00300720
     atom    9 type  1   force =    -0.00206993    0.00000624    0.00065006
     atom   10 type  1   force =     0.00216484   -0.00010997    0.00073610
     atom   11 type  1   force =    -0.00240187    0.00011925   -0.00047375
     atom   12 type  1   force =     0.00206063    0.00000559   -0.00059171

     Total force =     0.012839     Total SCF correction =     0.000275


     entering subroutine stress ...

          total   stress  (Ry/bohr**3)                   (kbar)     P=  200.09
   0.00136785  -0.00000064   0.00000409        201.22     -0.09      0.60
  -0.00000064   0.00137498   0.00000033         -0.09    202.27      0.05
   0.00000409   0.00000033   0.00133765          0.60      0.05    196.78


     number of scf cycles    =  10
     number of bfgs steps    =   9

     enthalpy old            =    -301.8559662577 Ry
     enthalpy new            =    -301.8562141522 Ry

     CASE: enthalpy_new < enthalpy_old

     new trust radius        =       0.0277720664 bohr
     new conv_thr            =       0.0000000248 Ry

     new unit-cell volume =    780.96834 a.u.^3 (   115.72757 Ang^3 )

CELL_PARAMETERS (alat= 11.28030000)
   0.901272709   0.000025332   0.000017697
   0.000016399   0.560487422   0.000265536
  -0.000017214   0.000501594   1.077083778

ATOMIC_POSITIONS (crystal)
Ca       0.246537498   0.248384292   0.113048105
Ca       0.253536384  -0.249986956   0.613074425
Ca       0.746375675   0.249989327   0.387000666
Ca      -0.246579486  -0.248395976  -0.113084362
H        0.348794074   0.250271620   0.429507443
H        0.151327910  -0.250850387   0.929266250
H        0.848646516   0.250862877   0.070339916
H       -0.348741814  -0.250276067  -0.428363881
H        0.973702862   0.250200032   0.688299154
H       -0.473639691  -0.250409061   1.188377078
H        1.473735774   0.250416190  -0.188931907
H       -0.973695703  -0.250205891  -0.688532888



     Writing output data file CaH2_ambient.save
     NEW-OLD atomic charge density approx. for the potential
     NEW k-points: (use verbosity='high' to print them)
     extrapolated charge   47.93580, renormalised to   48.00000

     total cpu time spent up to now is     5614.5 secs

     per-process dynamical memory:    23.0 Mb

     Self-consistent Calculation

     iteration #  1     ecut=    40.00 Ry     beta=0.30
     Davidson diagonalization with overlap
     ethr =  1.00E-06,  avg # of iterations =  4.0

     total cpu time spent up to now is     5733.3 secs

     total energy              =    -302.91824451 Ry
     Harris-Foulkes estimate   =    -302.99658042 Ry
     estimated scf accuracy    <       0.00025327 Ry

     iteration #  2     ecut=    40.00 Ry     beta=0.30
     Davidson diagonalization with overlap
     ethr =  5.28E-07,  avg # of iterations =  2.0

     total cpu time spent up to now is     5803.9 secs

     total energy              =    -302.91829989 Ry
     Harris-Foulkes estimate   =    -302.91831582 Ry
     estimated scf accuracy    <       0.00010215 Ry

     iteration #  3     ecut=    40.00 Ry     beta=0.30
     Davidson diagonalization with overlap
     ethr =  2.13E-07,  avg # of iterations =  1.0

     total cpu time spent up to now is     5849.2 secs

     total energy              =    -302.91828397 Ry
     Harris-Foulkes estimate   =    -302.91830059 Ry
     estimated scf accuracy    <       0.00004721 Ry

     iteration #  4     ecut=    40.00 Ry     beta=0.30
     Davidson diagonalization with overlap
     ethr =  9.84E-08,  avg # of iterations =  2.0

     total cpu time spent up to now is     5902.7 secs

     total energy              =    -302.91828749 Ry
     Harris-Foulkes estimate   =    -302.91828731 Ry
     estimated scf accuracy    <       0.00000037 Ry

     iteration #  5     ecut=    40.00 Ry     beta=0.30
     Davidson diagonalization with overlap
     ethr =  7.81E-10,  avg # of iterations =  2.0

     total cpu time spent up to now is     5968.8 secs

     total energy              =    -302.91828751 Ry
     Harris-Foulkes estimate   =    -302.91828756 Ry
     estimated scf accuracy    <       0.00000019 Ry

     iteration #  6     ecut=    40.00 Ry     beta=0.30
     Davidson diagonalization with overlap
     ethr =  3.91E-10,  avg # of iterations =  2.0

     total cpu time spent up to now is     6018.1 secs

     End of self-consistent calculation

     Number of k-points >= 100: set verbosity='high' to print the bands.

!    total energy              =    -302.91828752 Ry
     Harris-Foulkes estimate   =    -302.91828752 Ry
     estimated scf accuracy    <          9.9E-09 Ry

     The total energy is the sum of the following terms:

     one-electron contribution =     -95.64883758 Ry
     hartree contribution      =      59.98443889 Ry
     xc contribution           =     -47.33941941 Ry
     ewald contribution        =    -219.91446942 Ry

     convergence has been achieved in   6 iterations

     Forces acting on atoms (Ry/au):

     atom    1 type  2   force =    -0.00106121    0.00028809   -0.00386702
     atom    2 type  2   force =     0.00112354    0.00001292   -0.00401564
     atom    3 type  2   force =    -0.00123987   -0.00001431    0.00421455
     atom    4 type  2   force =     0.00131818   -0.00027071    0.00431684
     atom    5 type  1   force =    -0.00230219   -0.00008808   -0.00056482
     atom    6 type  1   force =     0.00219788   -0.00001634   -0.00004907
     atom    7 type  1   force =    -0.00217843    0.00000234    0.00080975
     atom    8 type  1   force =     0.00233268    0.00009102   -0.00160529
     atom    9 type  1   force =    -0.00168006   -0.00002917   -0.00005028
     atom   10 type  1   force =     0.00167952   -0.00006488    0.00003808
     atom   11 type  1   force =    -0.00183055    0.00005784    0.00058452
     atom   12 type  1   force =     0.00164051    0.00003128    0.00018838

     Total force =     0.010453     Total SCF correction =     0.000219


     entering subroutine stress ...

          total   stress  (Ry/bohr**3)                   (kbar)     P=  200.60
   0.00136903  -0.00000046   0.00000194        201.39     -0.07      0.29
  -0.00000046   0.00139139  -0.00000051         -0.07    204.68     -0.08
   0.00000194  -0.00000051   0.00133047          0.29     -0.08    195.72


     number of scf cycles    =  11
     number of bfgs steps    =  10

     enthalpy old            =    -301.8562141522 Ry
     enthalpy new            =    -301.8565043644 Ry

     CASE: enthalpy_new < enthalpy_old

     new trust radius        =       0.0274928992 bohr
     new conv_thr            =       0.0000000290 Ry

     new unit-cell volume =    780.03891 a.u.^3 (   115.58984 Ang^3 )

CELL_PARAMETERS (alat= 11.28030000)
   0.898646983  -0.000027852   0.000369672
  -0.000014823   0.561686167   0.000306613
   0.000367916   0.000577178   1.076642835

ATOMIC_POSITIONS (crystal)
Ca       0.247161408   0.248379577   0.112045319
Ca       0.253045713  -0.250042960   0.612071738
Ca       0.746737096   0.250044762   0.388204154
Ca      -0.247021135  -0.248406887  -0.111869259
H        0.346939015   0.250264773   0.430037765
H        0.153175447  -0.251020591   0.929928129
H        0.846781606   0.251035589   0.069828610
H       -0.346839680  -0.250264531  -0.429142638
H        0.972777243   0.250224992   0.690039440
H       -0.472675344  -0.250522377   1.190155782
H        1.472693699   0.250533664  -0.191019133
H       -0.972775068  -0.250226010  -0.690279907



     Writing output data file CaH2_ambient.save
     NEW-OLD atomic charge density approx. for the potential
     NEW k-points: (use verbosity='high' to print them)
     extrapolated charge   47.95234, renormalised to   48.00000

     total cpu time spent up to now is     6110.5 secs

     per-process dynamical memory:    23.0 Mb

     Self-consistent Calculation

     iteration #  1     ecut=    40.00 Ry     beta=0.30
     Davidson diagonalization with overlap
     ethr =  1.00E-06,  avg # of iterations =  4.0

     total cpu time spent up to now is     6232.2 secs

     total energy              =    -302.91734465 Ry
     Harris-Foulkes estimate   =    -302.97536640 Ry
     estimated scf accuracy    <       0.00024551 Ry

     iteration #  2     ecut=    40.00 Ry     beta=0.30
     Davidson diagonalization with overlap
     ethr =  5.11E-07,  avg # of iterations =  2.0

     total cpu time spent up to now is     6294.4 secs

     total energy              =    -302.91736312 Ry
     Harris-Foulkes estimate   =    -302.91738399 Ry
     estimated scf accuracy    <       0.00012121 Ry

     iteration #  3     ecut=    40.00 Ry     beta=0.30
     Davidson diagonalization with overlap
     ethr =  2.53E-07,  avg # of iterations =  1.0

     total cpu time spent up to now is     6340.0 secs

     total energy              =    -302.91734989 Ry
     Harris-Foulkes estimate   =    -302.91736476 Ry
     estimated scf accuracy    <       0.00004357 Ry

     iteration #  4     ecut=    40.00 Ry     beta=0.30
     Davidson diagonalization with overlap
     ethr =  9.08E-08,  avg # of iterations =  2.0

     total cpu time spent up to now is     6393.7 secs

     total energy              =    -302.91735319 Ry
     Harris-Foulkes estimate   =    -302.91735297 Ry
     estimated scf accuracy    <       0.00000044 Ry

     iteration #  5     ecut=    40.00 Ry     beta=0.30
     Davidson diagonalization with overlap
     ethr =  9.21E-10,  avg # of iterations =  2.1

     total cpu time spent up to now is     6455.6 secs

     total energy              =    -302.91735325 Ry
     Harris-Foulkes estimate   =    -302.91735324 Ry
     estimated scf accuracy    <       0.00000017 Ry

     iteration #  6     ecut=    40.00 Ry     beta=0.30
     Davidson diagonalization with overlap
     ethr =  3.51E-10,  avg # of iterations =  2.0

     total cpu time spent up to now is     6504.6 secs

     End of self-consistent calculation

     Number of k-points >= 100: set verbosity='high' to print the bands.

!    total energy              =    -302.91735325 Ry
     Harris-Foulkes estimate   =    -302.91735326 Ry
     estimated scf accuracy    <       0.00000002 Ry

     The total energy is the sum of the following terms:

     one-electron contribution =     -95.46481712 Ry
     hartree contribution      =      59.91572376 Ry
     xc contribution           =     -47.34018427 Ry
     ewald contribution        =    -220.02807562 Ry

     convergence has been achieved in   6 iterations

     Forces acting on atoms (Ry/au):

     atom    1 type  2   force =    -0.00114606    0.00012173   -0.00202329
     atom    2 type  2   force =     0.00105189    0.00010407   -0.00227472
     atom    3 type  2   force =    -0.00078464   -0.00009839    0.00194181
     atom    4 type  2   force =     0.00093821   -0.00004743    0.00185421
     atom    5 type  1   force =    -0.00152187   -0.00009522   -0.00229150
     atom    6 type  1   force =     0.00140095    0.00013082   -0.00183293
     atom    7 type  1   force =    -0.00128915   -0.00016650    0.00265881
     atom    8 type  1   force =     0.00143643    0.00008716    0.00086508
     atom    9 type  1   force =    -0.00071371   -0.00006923   -0.00035436
     atom   10 type  1   force =     0.00056745    0.00001325   -0.00028479
     atom   11 type  1   force =    -0.00058394   -0.00003844    0.00116362
     atom   12 type  1   force =     0.00064445    0.00005818    0.00057806

     Total force =     0.006958     Total SCF correction =     0.000323


     entering subroutine stress ...

          total   stress  (Ry/bohr**3)                   (kbar)     P=  200.76
   0.00136097  -0.00000002  -0.00000172        200.21     -0.00     -0.25
  -0.00000002   0.00140395  -0.00000151         -0.00    206.53     -0.22
  -0.00000172  -0.00000151   0.00132924         -0.25     -0.22    195.54


     number of scf cycles    =  12
     number of bfgs steps    =  11

     enthalpy old            =    -301.8565043644 Ry
     enthalpy new            =    -301.8568337291 Ry

     CASE: enthalpy_new < enthalpy_old

     new trust radius        =       0.0153013258 bohr
     new conv_thr            =       0.0000000266 Ry

     new unit-cell volume =    779.90020 a.u.^3 (   115.56928 Ang^3 )

CELL_PARAMETERS (alat= 11.28030000)
   0.897717424  -0.000067169   0.000567677
  -0.000038004   0.563224576   0.000300224
   0.000585637   0.000562666   1.074622924

ATOMIC_POSITIONS (crystal)
Ca       0.247223028   0.248447642   0.110989459
Ca       0.253053830  -0.250055750   0.610981357
Ca       0.746672079   0.250058368   0.389386301
Ca      -0.246975392  -0.248473613  -0.110672788
H        0.345709257   0.250230910   0.430078872
H        0.154379460  -0.251084811   0.930114001
H        0.845578214   0.251095008   0.069845987
H       -0.345591759  -0.250228495  -0.429638016
H        0.972102836   0.250222119   0.690787613
H       -0.471993386  -0.250584712   1.190935040
H        1.471953525   0.250594523  -0.191807140
H       -0.972111691  -0.250221188  -0.691000685



     Writing output data file CaH2_ambient.save
     NEW-OLD atomic charge density approx. for the potential
     NEW k-points: (use verbosity='high' to print them)
     extrapolated charge   47.99289, renormalised to   48.00000

     total cpu time spent up to now is     6598.3 secs

     per-process dynamical memory:    23.0 Mb

     Self-consistent Calculation

     iteration #  1     ecut=    40.00 Ry     beta=0.30
     Davidson diagonalization with overlap
     ethr =  1.00E-06,  avg # of iterations =  4.0

     total cpu time spent up to now is     6718.8 secs

     total energy              =    -302.91738628 Ry
     Harris-Foulkes estimate   =    -302.92604109 Ry
     estimated scf accuracy    <       0.00007020 Ry

     iteration #  2     ecut=    40.00 Ry     beta=0.30
     Davidson diagonalization with overlap
     ethr =  1.46E-07,  avg # of iterations =  1.0

     total cpu time spent up to now is     6764.7 secs

     total energy              =    -302.91737716 Ry
     Harris-Foulkes estimate   =    -302.91738765 Ry
     estimated scf accuracy    <       0.00004216 Ry

     iteration #  3     ecut=    40.00 Ry     beta=0.30
     Davidson diagonalization with overlap
     ethr =  8.78E-08,  avg # of iterations =  2.0

     total cpu time spent up to now is     6818.1 secs

     total energy              =    -302.91737926 Ry
     Harris-Foulkes estimate   =    -302.91737959 Ry
     estimated scf accuracy    <       0.00000092 Ry

     iteration #  4     ecut=    40.00 Ry     beta=0.30
     Davidson diagonalization with overlap
     ethr =  1.91E-09,  avg # of iterations =  2.3

     total cpu time spent up to now is     6875.9 secs

     total energy              =    -302.91737950 Ry
     Harris-Foulkes estimate   =    -302.91737937 Ry
     estimated scf accuracy    <       0.00000021 Ry

     iteration #  5     ecut=    40.00 Ry     beta=0.30
     Davidson diagonalization with overlap
     ethr =  4.34E-10,  avg # of iterations =  1.2

     total cpu time spent up to now is     6922.4 secs

     total energy              =    -302.91737949 Ry
     Harris-Foulkes estimate   =    -302.91737951 Ry
     estimated scf accuracy    <       0.00000005 Ry

     iteration #  6     ecut=    40.00 Ry     beta=0.30
     Davidson diagonalization with overlap
     ethr =  1.05E-10,  avg # of iterations =  2.0

     total cpu time spent up to now is     6977.0 secs

     End of self-consistent calculation

     Number of k-points >= 100: set verbosity='high' to print the bands.

!    total energy              =    -302.91737949 Ry
     Harris-Foulkes estimate   =    -302.91737949 Ry
     estimated scf accuracy    <       0.00000001 Ry

     The total energy is the sum of the following terms:

     one-electron contribution =     -95.41994619 Ry
     hartree contribution      =      59.89754718 Ry
     xc contribution           =     -47.33963718 Ry
     ewald contribution        =    -220.05534330 Ry

     convergence has been achieved in   6 iterations

     Forces acting on atoms (Ry/au):

     atom    1 type  2   force =    -0.00090120   -0.00004003   -0.00052458
     atom    2 type  2   force =     0.00068341    0.00012540   -0.00070348
     atom    3 type  2   force =    -0.00016354   -0.00011078    0.00001981
     atom    4 type  2   force =     0.00042362    0.00010729   -0.00011730
     atom    5 type  1   force =    -0.00084559   -0.00007736   -0.00305790
     atom    6 type  1   force =     0.00072281    0.00021087   -0.00280220
     atom    7 type  1   force =    -0.00058305   -0.00024473    0.00342356
     atom    8 type  1   force =     0.00066449    0.00006832    0.00265360
     atom    9 type  1   force =     0.00032708   -0.00007986   -0.00004162
     atom   10 type  1   force =    -0.00056531    0.00007280   -0.00001901
     atom   11 type  1   force =     0.00063443   -0.00009876    0.00086786
     atom   12 type  1   force =    -0.00039715    0.00006685    0.00030127

[...]
     atom   11 type  1   force =     0.00012914   -0.00005058   -0.00015712
     atom   12 type  1   force =    -0.00008240    0.00002184    0.00008047

     Total force =     0.001086     Total SCF correction =     0.000130
     SCF correction compared to forces is large: reduce conv_thr to get better values


     entering subroutine stress ...

          total   stress  (Ry/bohr**3)                   (kbar)     P=  199.94
   0.00135590   0.00000082  -0.00000225        199.46      0.12     -0.33
   0.00000082   0.00135870   0.00000051          0.12    199.87      0.07
  -0.00000225   0.00000051   0.00136292         -0.33      0.07    200.49


     number of scf cycles    =  26
     number of bfgs steps    =  25

     enthalpy old            =    -301.8577716283 Ry
     enthalpy new            =    -301.8577786116 Ry

     CASE: enthalpy_new < enthalpy_old

     new trust radius        =       0.0045673710 bohr
     new conv_thr            =       0.0000000100 Ry

     new unit-cell volume =    777.40689 a.u.^3 (   115.19981 Ang^3 )

CELL_PARAMETERS (alat= 11.28030000)
   0.886687334  -0.000071742   0.000163456
  -0.000040176   0.570798625   0.000046511
   0.000129906   0.000071794   1.070121345

ATOMIC_POSITIONS (crystal)
Ca       0.246802514   0.249554349   0.105365519
Ca       0.253262982  -0.249922069   0.605361873
Ca       0.746656909   0.249917419   0.394690677
Ca      -0.246768826  -0.249562103  -0.105301375
H        0.338408052   0.250106587   0.425582966
H        0.161560420  -0.250269234   0.925578807
H        0.838426086   0.250287024   0.074322624
H       -0.338382116  -0.250121509  -0.425581084
H        0.976515543   0.250049070   0.696819911
H       -0.476479549  -0.250168818   1.196728153
H        1.476488133   0.250178378  -0.196723346
H       -0.976490148  -0.250049094  -0.696844724



     Writing output data file CaH2_ambient.save
     NEW-OLD atomic charge density approx. for the potential
     NEW k-points: (use verbosity='high' to print them)
     extrapolated charge   47.98849, renormalised to   48.00000

     total cpu time spent up to now is    13621.0 secs

     per-process dynamical memory:    23.0 Mb

     Self-consistent Calculation

     iteration #  1     ecut=    40.00 Ry     beta=0.30
     Davidson diagonalization with overlap
     ethr =  1.00E-06,  avg # of iterations =  3.0

     Threshold (ethr) on eigenvalues was too large:
     Diagonalizing with lowered threshold

     Davidson diagonalization with overlap
     ethr =  1.44E-08,  avg # of iterations =  2.6

     total cpu time spent up to now is    13767.0 secs

     total energy              =    -302.91472074 Ry
     Harris-Foulkes estimate   =    -302.92862123 Ry
     estimated scf accuracy    <       0.00000709 Ry

     iteration #  2     ecut=    40.00 Ry     beta=0.30
     Davidson diagonalization with overlap
     ethr =  1.48E-08,  avg # of iterations =  2.0

     total cpu time spent up to now is    13846.6 secs

     total energy              =    -302.91472269 Ry
     Harris-Foulkes estimate   =    -302.91472306 Ry
     estimated scf accuracy    <       0.00000270 Ry

     iteration #  3     ecut=    40.00 Ry     beta=0.30
     Davidson diagonalization with overlap
     ethr =  5.62E-09,  avg # of iterations =  1.0

     total cpu time spent up to now is    13895.8 secs

     total energy              =    -302.91472228 Ry
     Harris-Foulkes estimate   =    -302.91472271 Ry
     estimated scf accuracy    <       0.00000131 Ry

     iteration #  4     ecut=    40.00 Ry     beta=0.30
     Davidson diagonalization with overlap
     ethr =  2.74E-09,  avg # of iterations =  2.0

     total cpu time spent up to now is    13955.7 secs

     End of self-consistent calculation

     Number of k-points >= 100: set verbosity='high' to print the bands.

!    total energy              =    -302.91472237 Ry
     Harris-Foulkes estimate   =    -302.91472237 Ry
     estimated scf accuracy    <          1.0E-08 Ry

     The total energy is the sum of the following terms:

     one-electron contribution =     -94.92713358 Ry
     hartree contribution      =      59.70813141 Ry
     xc contribution           =     -47.33880624 Ry
     ewald contribution        =    -220.35691396 Ry

     convergence has been achieved in   4 iterations

     Forces acting on atoms (Ry/au):

     atom    1 type  2   force =    -0.00018505   -0.00007896   -0.00036249
     atom    2 type  2   force =     0.00005169    0.00009160   -0.00007063
     atom    3 type  2   force =     0.00015670   -0.00009250   -0.00010490
     atom    4 type  2   force =     0.00004992    0.00009518    0.00014076
     atom    5 type  1   force =     0.00001154   -0.00002092    0.00021765
     atom    6 type  1   force =    -0.00000378   -0.00001086    0.00026394
     atom    7 type  1   force =     0.00003981   -0.00000729    0.00001189
     atom    8 type  1   force =    -0.00006621    0.00003118   -0.00012068
     atom    9 type  1   force =    -0.00001532   -0.00001011   -0.00014576
     atom   10 type  1   force =    -0.00006798    0.00002667    0.00001188
     atom   11 type  1   force =     0.00006282   -0.00003295   -0.00000034
     atom   12 type  1   force =    -0.00003415    0.00000896    0.00015869

     Total force =     0.000679     Total SCF correction =     0.000190
     SCF correction compared to forces is large: reduce conv_thr to get better values


     entering subroutine stress ...

          total   stress  (Ry/bohr**3)                   (kbar)     P=  199.98
   0.00135831   0.00000064  -0.00000156        199.81      0.09     -0.23
   0.00000064   0.00135881   0.00000033          0.09    199.89      0.05
  -0.00000156   0.00000033   0.00136120         -0.23      0.05    200.24


     bfgs converged in  27 scf cycles and  26 bfgs steps
     (criteria: energy < 0.10E-03, force < 0.10E-02, cell < 0.50E+00)

     End of BFGS Geometry Optimization

     Final enthalpy =    -301.8577812676 Ry
Begin final coordinates
     new unit-cell volume =    777.40689 a.u.^3 (   115.19981 Ang^3 )

CELL_PARAMETERS (alat= 11.28030000)
   0.886687334  -0.000071742   0.000163456
  -0.000040176   0.570798625   0.000046511
   0.000129906   0.000071794   1.070121345

ATOMIC_POSITIONS (crystal)
Ca       0.246802514   0.249554349   0.105365519
Ca       0.253262982  -0.249922069   0.605361873
Ca       0.746656909   0.249917419   0.394690677
Ca      -0.246768826  -0.249562103  -0.105301375
H        0.338408052   0.250106587   0.425582966
H        0.161560420  -0.250269234   0.925578807
H        0.838426086   0.250287024   0.074322624
H       -0.338382116  -0.250121509  -0.425581084
H        0.976515543   0.250049070   0.696819911
H       -0.476479549  -0.250168818   1.196728153
H        1.476488133   0.250178378  -0.196723346
H       -0.976490148  -0.250049094  -0.696844724
End final coordinates



     A final scf calculation at the relaxed structure.
     The G-vectors are recalculated for the final unit cell
     Results may differ from those at the preceding step.

     G-vector sticks info
     --------------------
     sticks:   dense  smooth     PW     G-vecs:    dense   smooth      PW
     Sum         809     809    231                26501    26501    4163



     bravais-lattice index     =            8
     lattice parameter (alat)  =      11.2803  a.u.
     unit-cell volume          =     777.4069 (a.u.)^3
     number of atoms/cell      =           12
     number of atomic types    =            2
     number of electrons       =        48.00
     number of Kohn-Sham states=           24
     kinetic-energy cutoff     =      40.0000  Ry
     charge density cutoff     =     160.0000  Ry
     convergence threshold     =      1.0E-08
     mixing beta               =       0.3000
     number of iterations used =           16  local-TF  mixing
     Exchange-correlation      = PBE ( 1 4 3 4 0)
     EXX-fraction              =        0.00

     celldm(1)=  11.280300  celldm(2)=   0.604300  celldm(3)=   1.146000
     celldm(4)=   0.000000  celldm(5)=   0.000000  celldm(6)=   0.000000

     crystal axes: (cart. coord. in units of alat)
               a(1) = (   0.886687  -0.000072   0.000163 )  
               a(2) = (  -0.000040   0.570799   0.000047 )  
               a(3) = (   0.000130   0.000072   1.070121 )  

     reciprocal axes: (cart. coord. in units 2 pi/alat)
               b(1) = (  1.127793  0.000079 -0.000137 )  
               b(2) = (  0.000142  1.751931 -0.000118 )  
               b(3) = ( -0.000172 -0.000076  0.934473 )  


     PseudoPot. # 1 for H  read from file:
     /home/ilia/espresso/pseudo/H.pbe-sp-mt.ncpp
     MD5 check sum: 7a641936b52ccecd26bd1ad87cca5aed
     Pseudo is Norm-conserving, Zval =  1.0
     Generated by old ld1 code (numerical format)
     Using radial grid of 1076 points,  0 beta functions with: 

     PseudoPot. # 2 for Ca read from file:
     /home/ilia/espresso/pseudo/Ca.pbe-sp-mt_ion2.ncpp
     MD5 check sum: 4bcd670d05521f7b178fdf0a334578ab
     Pseudo is Norm-conserving, Zval = 10.0
     Generated by old ld1 code (numerical format)
     Using radial grid of 1153 points,  1 beta functions with: 
                l(1) =   1

     atomic species   valence    mass     pseudopotential
        H              1.00     1.00700     H ( 1.00)
        Ca            10.00    40.07800     Ca( 1.00)

     No symmetry found
          (note:  1 additional sym.ops. were found but ignored
           their fractional translations are incommensurate with FFT grid)


   Cartesian axes

     site n.     atom                  positions (alat units)
         1           Ca  tau(   1) = (   0.2188403   0.1424351   0.1128058  )
         2           Ca  tau(   2) = (   0.2246538  -0.1426299   0.6478404  )
         3           Ca  tau(   3) = (   0.6620925   0.1426273   0.4225006  )
         4           Ca  tau(   4) = (  -0.2188104  -0.1424396  -0.1127372  )
         5           H   tau(   5) = (   0.3001074   0.1427668   0.4554924  )
         6           H   tau(   6) = (   0.1433839  -0.1427985   0.9904964  )
         7           H   tau(   7) = (   0.7434214   0.1428087   0.0796829  )
         8           H   tau(   8) = (  -0.3000844  -0.1427753  -0.4554903  )
         9           H   tau(   9) = (   0.8659444   0.1427076   0.7458531  )
        10           H   tau(  10) = (  -0.4223229  -0.1426759   1.2805548  )
        11           H   tau(  11) = (   1.3091477   0.1426814  -0.2102649  )
        12           H   tau(  12) = (  -0.8659219  -0.1427077  -0.7458797  )

     number of k points=   108

     Number of k-points >= 100: set verbosity='high' to print them.

     Dense  grid:    26501 G-vectors     FFT dimensions: (  45,  25,  50)

     Largest allocated arrays     est. size (Mb)     dimensions
        Kohn-Sham Wavefunctions         1.22 Mb     (   3338,   24)
        NL pseudopotentials             0.61 Mb     (   3338,   12)
        Each V/rho on FFT grid          0.86 Mb     (  56250)
        Each G-vector array             0.20 Mb     (  26501)
        G-vector shells                 0.10 Mb     (  13251)
     Largest temporary arrays     est. size (Mb)     dimensions
        Auxiliary wavefunctions         4.89 Mb     (   3338,   96)
        Each subspace H/S matrix        0.14 Mb     (  96,  96)
        Each <psi_i|beta_j> matrix      0.00 Mb     (     12,   24)
        Arrays for rho mixing          13.73 Mb     (  56250,  16)

     Initial potential from superposition of free atoms

     starting charge   39.99992, renormalised to   48.00000
     Starting wfc are   24 randomized atomic wfcs

     Writing output data file CaH2_ambient.save

     total cpu time spent up to now is    14037.6 secs

     per-process dynamical memory:    18.9 Mb

     Self-consistent Calculation

     iteration #  1     ecut=    40.00 Ry     beta=0.30
     Davidson diagonalization with overlap
     ethr =  1.00E-06,  avg # of iterations =  5.0

     total cpu time spent up to now is    14151.7 secs

     total energy              =    -306.07314776 Ry
     Harris-Foulkes estimate   =    -308.33929873 Ry
     estimated scf accuracy    <      11.12058110 Ry

     iteration #  2     ecut=    40.00 Ry     beta=0.30
     Davidson diagonalization with overlap
     ethr =  1.00E-02,  avg # of iterations =  1.0

     total cpu time spent up to now is    14183.0 secs

     total energy              =    -301.66656840 Ry
     Harris-Foulkes estimate   =    -306.19882083 Ry
     estimated scf accuracy    <       6.64121326 Ry

     iteration #  3     ecut=    40.00 Ry     beta=0.30
     Davidson diagonalization with overlap
     ethr =  1.00E-02,  avg # of iterations =  2.0

     total cpu time spent up to now is    14234.9 secs

     total energy              =    -302.88358917 Ry
     Harris-Foulkes estimate   =    -302.89449953 Ry
     estimated scf accuracy    <       0.24792095 Ry

     iteration #  4     ecut=    40.00 Ry     beta=0.30
     Davidson diagonalization with overlap
     ethr =  5.17E-04,  avg # of iterations =  1.0

     total cpu time spent up to now is    14266.3 secs

     total energy              =    -302.88681465 Ry
     Harris-Foulkes estimate   =    -302.88665187 Ry
     estimated scf accuracy    <       0.17110496 Ry

     iteration #  5     ecut=    40.00 Ry     beta=0.30
     Davidson diagonalization with overlap
     ethr =  3.56E-04,  avg # of iterations =  2.0

     total cpu time spent up to now is    14305.4 secs

     total energy              =    -302.89943492 Ry
     Harris-Foulkes estimate   =    -302.89958092 Ry
     estimated scf accuracy    <       0.00519407 Ry

     iteration #  6     ecut=    40.00 Ry     beta=0.30
     Davidson diagonalization with overlap
     ethr =  1.08E-05,  avg # of iterations =  2.0

     total cpu time spent up to now is    14338.8 secs

     total energy              =    -302.90003726 Ry
     Harris-Foulkes estimate   =    -302.89963826 Ry
     estimated scf accuracy    <       0.00289777 Ry

     iteration #  7     ecut=    40.00 Ry     beta=0.30
     Davidson diagonalization with overlap
     ethr =  6.04E-06,  avg # of iterations =  2.0

     total cpu time spent up to now is    14374.9 secs

     total energy              =    -302.89978177 Ry
     Harris-Foulkes estimate   =    -302.90019974 Ry
     estimated scf accuracy    <       0.00065983 Ry

     iteration #  8     ecut=    40.00 Ry     beta=0.30
     Davidson diagonalization with overlap
     ethr =  1.37E-06,  avg # of iterations =  2.0

     total cpu time spent up to now is    14423.4 secs

     total energy              =    -302.89991467 Ry
     Harris-Foulkes estimate   =    -302.89991182 Ry
     estimated scf accuracy    <       0.00001515 Ry

     iteration #  9     ecut=    40.00 Ry     beta=0.30
     Davidson diagonalization with overlap
     ethr =  3.16E-08,  avg # of iterations =  2.1

     total cpu time spent up to now is    14458.0 secs

     total energy              =    -302.89991088 Ry
     Harris-Foulkes estimate   =    -302.89991552 Ry
     estimated scf accuracy    <       0.00001385 Ry

     iteration # 10     ecut=    40.00 Ry     beta=0.30
     Davidson diagonalization with overlap
     ethr =  2.89E-08,  avg # of iterations =  2.0

     total cpu time spent up to now is    14506.0 secs

     total energy              =    -302.89991262 Ry
     Harris-Foulkes estimate   =    -302.89991266 Ry
     estimated scf accuracy    <       0.00000017 Ry

     iteration # 11     ecut=    40.00 Ry     beta=0.30
     Davidson diagonalization with overlap
     ethr =  3.45E-10,  avg # of iterations =  2.0

     total cpu time spent up to now is    14548.1 secs

     total energy              =    -302.89991263 Ry
     Harris-Foulkes estimate   =    -302.89991266 Ry
     estimated scf accuracy    <       0.00000008 Ry

     iteration # 12     ecut=    40.00 Ry     beta=0.30
     Davidson diagonalization with overlap
     ethr =  1.62E-10,  avg # of iterations =  2.0

     total cpu time spent up to now is    14592.3 secs

     End of self-consistent calculation

     Number of k-points >= 100: set verbosity='high' to print the bands.

!    total energy              =    -302.89991264 Ry
     Harris-Foulkes estimate   =    -302.89991264 Ry
     estimated scf accuracy    <          2.3E-09 Ry

     The total energy is the sum of the following terms:

     one-electron contribution =     -94.90750520 Ry
     hartree contribution      =      59.69454554 Ry
     xc contribution           =     -47.33003901 Ry
     ewald contribution        =    -220.35691397 Ry

     convergence has been achieved in  12 iterations

     Forces acting on atoms (Ry/au):

     atom    1 type  2   force =    -0.00005920    0.00127750    0.00055768
     atom    2 type  2   force =     0.00005470   -0.00069837    0.00020052
     atom    3 type  2   force =     0.00013822    0.00069588   -0.00038429
     atom    4 type  2   force =    -0.00006693   -0.00126569   -0.00077445
     atom    5 type  1   force =     0.00006584   -0.00002168    0.00021429
     atom    6 type  1   force =    -0.00005457   -0.00000722    0.00026106
     atom    7 type  1   force =     0.00009212   -0.00000961    0.00001849
     atom    8 type  1   force =    -0.00011881    0.00003349   -0.00011714
     atom    9 type  1   force =    -0.00000334   -0.00001122   -0.00018609
     atom   10 type  1   force =    -0.00007720    0.00002905   -0.00002331
     atom   11 type  1   force =     0.00007359   -0.00003380    0.00003526
     atom   12 type  1   force =    -0.00004442    0.00001166    0.00019798

     Total force =     0.002363     Total SCF correction =     0.000030


     entering subroutine stress ...

          total   stress  (Ry/bohr**3)                   (kbar)     P=  191.55
   0.00130715   0.00000064  -0.00000152        192.29      0.09     -0.22
   0.00000064   0.00129879   0.00000035          0.09    191.06      0.05
  -0.00000152   0.00000035   0.00130042         -0.22      0.05    191.30


     Writing output data file CaH2_ambient.save

     init_run     :     73.93s CPU     77.93s WALL (       2 calls)
     electrons    :  11542.62s CPU  12025.29s WALL (      28 calls)
     update_pot   :   1030.27s CPU   1072.01s WALL (      26 calls)
     forces       :    425.75s CPU    434.00s WALL (      28 calls)
     stress       :    986.74s CPU    999.91s WALL (      28 calls)

     Called by init_run:
     wfcinit      :     35.49s CPU     38.04s WALL (       2 calls)
     potinit      :     17.90s CPU     17.99s WALL (       2 calls)

     Called by electrons:
     c_bands      :  10043.54s CPU  10481.06s WALL (     191 calls)
     sum_band     :   1458.27s CPU   1500.27s WALL (     191 calls)
     v_of_rho     :     22.96s CPU     23.53s WALL (     208 calls)
     mix_rho      :     19.91s CPU     21.61s WALL (     191 calls)

     Called by c_bands:
     init_us_2    :    159.99s CPU    170.06s WALL (   47520 calls)
     cegterg      :   9964.12s CPU  10195.24s WALL (   20628 calls)

     Called by *egterg:
     h_psi        :   6238.87s CPU   6308.36s WALL (   63975 calls)
     g_psi        :     54.72s CPU     55.51s WALL (   43131 calls)
     cdiaghg      :    146.12s CPU    147.79s WALL (   59763 calls)

     Called by h_psi:
     add_vuspsi   :    201.47s CPU    203.78s WALL (   63975 calls)

     General routines
     calbec       :    224.43s CPU    226.68s WALL (   70023 calls)
     fft          :      6.84s CPU      7.00s WALL (    2532 calls)
     ffts         :      7.85s CPU      7.97s WALL (    3016 calls)
     fftw         :   5782.96s CPU   5834.12s WALL ( 3119792 calls)
     davcio       :      7.30s CPU    234.77s WALL (   68148 calls)


     PWSCF        :     3h54m CPU        4h 3m WALL


   This run was terminated on:   2: 8:34   4Jun2014            

=------------------------------------------------------------------------------=
   JOB DONE.
=------------------------------------------------------------------------------=
