
     Program PWSCF v.5.0.2 (svn rev. 9392) starts on  3Jun2014 at 19:15: 0 

     This program is part of the open-source Quantum ESPRESSO suite
     for quantum simulation of materials; please cite
         "P. Giannozzi et al., J. Phys.:Condens. Matter 21 395502 (2009);
          URL http://www.quantum-espresso.org", 
     in publications or presentations arising from this work. More details at
     http://www.quantum-espresso.org/quote.php

     Serial version

     Current dimensions of program PWSCF are:
     Max number of different atomic species (ntypx) = 10
     Max number of k-points (npk) =  40000
     Max angular momentum in pseudopotentials (lmaxx) =  3
     Waiting for input...
     Reading input from standard input

     G-vector sticks info
     --------------------
     sticks:   dense  smooth     PW     G-vecs:    dense   smooth      PW
     Sum         983     983    291                34015    34015    5283



     bravais-lattice index     =            8
     lattice parameter (alat)  =      11.2803  a.u.
     unit-cell volume          =     994.0292 (a.u.)^3
     number of atoms/cell      =           12
     number of atomic types    =            2
     number of electrons       =        48.00
     number of Kohn-Sham states=           24
     kinetic-energy cutoff     =      40.0000  Ry
     charge density cutoff     =     160.0000  Ry
     convergence threshold     =      1.0E-06
     mixing beta               =       0.3000
     number of iterations used =           16  local-TF  mixing
     Exchange-correlation      = PBE ( 1 4 3 4 0)
     EXX-fraction              =        0.00
     nstep                     =           50


     celldm(1)=  11.280300  celldm(2)=   0.604300  celldm(3)=   1.146000
     celldm(4)=   0.000000  celldm(5)=   0.000000  celldm(6)=   0.000000

     crystal axes: (cart. coord. in units of alat)
               a(1) = (   1.000000   0.000000   0.000000 )  
               a(2) = (   0.000000   0.604300   0.000000 )  
               a(3) = (   0.000000   0.000000   1.146000 )  

     reciprocal axes: (cart. coord. in units 2 pi/alat)
               b(1) = (  1.000000  0.000000  0.000000 )  
               b(2) = (  0.000000  1.654807  0.000000 )  
               b(3) = (  0.000000  0.000000  0.872600 )  


     PseudoPot. # 1 for H  read from file:
     /home/ilia/espresso/pseudo/H.pbe-sp-mt.ncpp
     MD5 check sum: 7a641936b52ccecd26bd1ad87cca5aed
     Pseudo is Norm-conserving, Zval =  1.0
     Generated by old ld1 code (numerical format)
     Using radial grid of 1076 points,  0 beta functions with: 

     PseudoPot. # 2 for Ca read from file:
     /home/ilia/espresso/pseudo/Ca.pbe-sp-mt_ion2.ncpp
     MD5 check sum: 4bcd670d05521f7b178fdf0a334578ab
     Pseudo is Norm-conserving, Zval = 10.0
     Generated by old ld1 code (numerical format)
     Using radial grid of 1153 points,  1 beta functions with: 
                l(1) =   1

     atomic species   valence    mass     pseudopotential
        H              1.00     1.00700     H ( 1.00)
        Ca            10.00    40.07800     Ca( 1.00)

     No symmetry found
          (note:  1 additional sym.ops. were found but ignored
           their fractional translations are incommensurate with FFT grid)


   Cartesian axes

     site n.     atom                  positions (alat units)
         1           Ca  tau(   1) = (   0.2400000   0.1510750   0.1259454  )
         2           Ca  tau(   2) = (   0.2600000  -0.1510750   0.6989454  )
         3           Ca  tau(   3) = (   0.7400000   0.1510750   0.4470546  )
         4           Ca  tau(   4) = (  -0.2400000  -0.1510750  -0.1259454  )
         5           H   tau(   5) = (   0.3557000   0.1510750   0.4887690  )
         6           H   tau(   6) = (   0.1443000  -0.1510750   1.0617690  )
         7           H   tau(   7) = (   0.8557000   0.1510750   0.0842310  )
         8           H   tau(   8) = (  -0.3557000  -0.1510750  -0.4922070  )
         9           H   tau(   9) = (   0.9754000   0.1510750   0.7752690  )
        10           H   tau(  10) = (  -0.4754000  -0.1510750   1.3482690  )
        11           H   tau(  11) = (   1.4754000   0.1510750  -0.1988310  )
        12           H   tau(  12) = (  -0.9754000  -0.1510750  -0.7752690  )

     number of k points=   108

     Number of k-points >= 100: set verbosity='high' to print them.

     Dense  grid:    34015 G-vectors     FFT dimensions: (  45,  27,  54)

     Largest allocated arrays     est. size (Mb)     dimensions
        Kohn-Sham Wavefunctions         1.56 Mb     (   4268,   24)
        NL pseudopotentials             0.78 Mb     (   4268,   12)
        Each V/rho on FFT grid          1.00 Mb     (  65610)
        Each G-vector array             0.26 Mb     (  34015)
        G-vector shells                 0.26 Mb     (  34015)
     Largest temporary arrays     est. size (Mb)     dimensions
        Auxiliary wavefunctions         6.25 Mb     (   4268,   96)
        Each subspace H/S matrix        0.14 Mb     (  96,  96)
        Each <psi_i|beta_j> matrix      0.00 Mb     (     12,   24)
        Arrays for rho mixing          16.02 Mb     (  65610,  16)

     Initial potential from superposition of free atoms

     starting charge   39.99992, renormalised to   48.00000
     Starting wfc are   24 randomized atomic wfcs

     total cpu time spent up to now is       51.1 secs

     per-process dynamical memory:    17.1 Mb

     Self-consistent Calculation

     iteration #  1     ecut=    40.00 Ry     beta=0.30
     Davidson diagonalization with overlap
     ethr =  1.00E-02,  avg # of iterations =  2.0

     total cpu time spent up to now is      119.1 secs

     total energy              =    -306.47248621 Ry
     Harris-Foulkes estimate   =    -308.75457630 Ry
     estimated scf accuracy    <      11.56521712 Ry

     iteration #  2     ecut=    40.00 Ry     beta=0.30
     Davidson diagonalization with overlap
     ethr =  1.00E-02,  avg # of iterations =  1.0

     total cpu time spent up to now is      162.1 secs

     total energy              =    -301.79593211 Ry
     Harris-Foulkes estimate   =    -306.59728518 Ry
     estimated scf accuracy    <       7.06306850 Ry

     iteration #  3     ecut=    40.00 Ry     beta=0.30
     Davidson diagonalization with overlap
     ethr =  1.00E-02,  avg # of iterations =  2.0

     total cpu time spent up to now is      231.1 secs

     total energy              =    -303.04582892 Ry
     Harris-Foulkes estimate   =    -303.07523321 Ry
     estimated scf accuracy    <       0.35070893 Ry

     iteration #  4     ecut=    40.00 Ry     beta=0.30
     Davidson diagonalization with overlap
     ethr =  7.31E-04,  avg # of iterations =  1.0

     total cpu time spent up to now is      274.1 secs

     total energy              =    -303.03333580 Ry
     Harris-Foulkes estimate   =    -303.05071658 Ry
     estimated scf accuracy    <       0.22564052 Ry

     iteration #  5     ecut=    40.00 Ry     beta=0.30
     Davidson diagonalization with overlap
     ethr =  4.70E-04,  avg # of iterations =  2.0

     total cpu time spent up to now is      324.8 secs

     total energy              =    -303.05082388 Ry
     Harris-Foulkes estimate   =    -303.05148951 Ry
     estimated scf accuracy    <       0.00813008 Ry

     iteration #  6     ecut=    40.00 Ry     beta=0.30
     Davidson diagonalization with overlap
     ethr =  1.69E-05,  avg # of iterations =  2.0

     total cpu time spent up to now is      371.0 secs

     total energy              =    -303.05162876 Ry
     Harris-Foulkes estimate   =    -303.05116958 Ry
     estimated scf accuracy    <       0.00439837 Ry

     iteration #  7     ecut=    40.00 Ry     beta=0.30
     Davidson diagonalization with overlap
     ethr =  9.16E-06,  avg # of iterations =  2.0

     total cpu time spent up to now is      422.1 secs

     total energy              =    -303.05126173 Ry
     Harris-Foulkes estimate   =    -303.05203494 Ry
     estimated scf accuracy    <       0.00122909 Ry

     iteration #  8     ecut=    40.00 Ry     beta=0.30
     Davidson diagonalization with overlap
     ethr =  2.56E-06,  avg # of iterations =  2.0

     total cpu time spent up to now is      486.8 secs

     total energy              =    -303.05151233 Ry
     Harris-Foulkes estimate   =    -303.05150480 Ry
     estimated scf accuracy    <       0.00002034 Ry

     iteration #  9     ecut=    40.00 Ry     beta=0.30
     Davidson diagonalization with overlap
     ethr =  4.24E-08,  avg # of iterations =  2.5

     total cpu time spent up to now is      538.5 secs

     total energy              =    -303.05150804 Ry
     Harris-Foulkes estimate   =    -303.05151586 Ry
     estimated scf accuracy    <       0.00002959 Ry

     iteration # 10     ecut=    40.00 Ry     beta=0.30
     Davidson diagonalization with overlap
     ethr =  4.24E-08,  avg # of iterations =  2.0

     total cpu time spent up to now is      595.8 secs

     End of self-consistent calculation

     Number of k-points >= 100: set verbosity='high' to print the bands.

!    total energy              =    -303.05150952 Ry
     Harris-Foulkes estimate   =    -303.05150979 Ry
     estimated scf accuracy    <       0.00000075 Ry

     The total energy is the sum of the following terms:

     one-electron contribution =    -121.74451130 Ry
     hartree contribution      =      68.07615896 Ry
     xc contribution           =     -46.61644453 Ry
     ewald contribution        =    -202.76671266 Ry

     convergence has been achieved in  10 iterations

     Forces acting on atoms (Ry/au):

     atom    1 type  2   force =    -0.00033836   -0.00114419   -0.00043883
     atom    2 type  2   force =    -0.00161341    0.00070798   -0.00142378
     atom    3 type  2   force =     0.00197308   -0.00070823   -0.00060445
     atom    4 type  2   force =    -0.00015704    0.00114508    0.00071155
     atom    5 type  1   force =    -0.00046958    0.00000139    0.00084641
     atom    6 type  1   force =     0.00029097   -0.00000126    0.00024858
     atom    7 type  1   force =    -0.00023970    0.00000111   -0.00049480
     atom    8 type  1   force =     0.00007765   -0.00000159    0.00326895
     atom    9 type  1   force =    -0.00011854    0.00000033    0.00001349
     atom   10 type  1   force =    -0.00009196   -0.00000187   -0.00002380
     atom   11 type  1   force =     0.00055668    0.00000174   -0.00216227
     atom   12 type  1   force =     0.00013020   -0.00000048    0.00005894

     Total force =     0.005519     Total SCF correction =     0.000252


     entering subroutine stress ...

          total   stress  (Ry/bohr**3)                   (kbar)     P=    9.75
   0.00006905   0.00000003  -0.00000125         10.16      0.00     -0.18
   0.00000003   0.00006412   0.00000001          0.00      9.43      0.00
  -0.00000125   0.00000001   0.00006562         -0.18      0.00      9.65


     BFGS Geometry Optimization

     number of scf cycles    =   1
     number of bfgs steps    =   0

     enthalpy new            =    -302.3757820642 Ry

     new trust radius        =       0.0970538865 bohr
     new conv_thr            =       0.0000010000 Ry

     new unit-cell volume =    948.98791 a.u.^3 (   140.62550 Ang^3 )

CELL_PARAMETERS (alat= 11.28030000)
   0.984731711   0.000000735  -0.000031358
   0.000000444   0.594998865   0.000000214
  -0.000035937   0.000000406   1.128404138

ATOMIC_POSITIONS (crystal)
Ca       0.239970004   0.249832148   0.109866054
Ca       0.259856971  -0.249896140   0.609789862
Ca       0.740174914   0.249896103   0.390053242
Ca      -0.240013921  -0.249832018  -0.109844957
H        0.355658372   0.250000203   0.426565475
H        0.144325795  -0.250000185   0.926519229
H        0.855678751   0.250000162   0.073461724
H       -0.355693117  -0.250000233  -0.429247127
H        0.975389492   0.250000049   0.676501044
H       -0.475408152  -0.250000274   1.176498159
H        1.475449350   0.250000255  -0.173667265
H       -0.975388458  -0.250000070  -0.676495440



     Writing output data file CaH2_ambient.save
     NEW-OLD atomic charge density approx. for the potential
     NEW k-points: (use verbosity='high' to print them)
     extrapolated charge   46.10150, renormalised to   48.00000

     total cpu time spent up to now is      686.7 secs

     per-process dynamical memory:    23.0 Mb

     Self-consistent Calculation

     iteration #  1     ecut=    40.00 Ry     beta=0.30
     Davidson diagonalization with overlap
     ethr =  1.00E-06,  avg # of iterations =  4.3

     total cpu time spent up to now is      793.3 secs

     total energy              =    -302.98413024 Ry
     Harris-Foulkes estimate   =    -305.86859026 Ry
     estimated scf accuracy    <       0.10325244 Ry

     iteration #  2     ecut=    40.00 Ry     beta=0.30
     Davidson diagonalization with overlap
     ethr =  2.15E-04,  avg # of iterations =  2.0

     total cpu time spent up to now is      862.7 secs

     total energy              =    -303.04590832 Ry
     Harris-Foulkes estimate   =    -303.04728017 Ry
     estimated scf accuracy    <       0.00606954 Ry

     iteration #  3     ecut=    40.00 Ry     beta=0.30
     Davidson diagonalization with overlap
     ethr =  1.26E-05,  avg # of iterations =  1.0

     total cpu time spent up to now is      905.8 secs

     total energy              =    -303.04348170 Ry
     Harris-Foulkes estimate   =    -303.04605121 Ry
     estimated scf accuracy    <       0.00366025 Ry

     iteration #  4     ecut=    40.00 Ry     beta=0.30
     Davidson diagonalization with overlap
     ethr =  7.63E-06,  avg # of iterations =  2.0

     total cpu time spent up to now is      972.0 secs

     total energy              =    -303.04427585 Ry
     Harris-Foulkes estimate   =    -303.04427706 Ry
     estimated scf accuracy    <       0.00018361 Ry

     iteration #  5     ecut=    40.00 Ry     beta=0.30
     Davidson diagonalization with overlap
     ethr =  3.83E-07,  avg # of iterations =  1.1

     total cpu time spent up to now is     1015.3 secs

     total energy              =    -303.04427527 Ry
     Harris-Foulkes estimate   =    -303.04428096 Ry
     estimated scf accuracy    <       0.00005231 Ry

     iteration #  6     ecut=    40.00 Ry     beta=0.30
     Davidson diagonalization with overlap
     ethr =  1.09E-07,  avg # of iterations =  1.1

     total cpu time spent up to now is     1058.6 secs

     total energy              =    -303.04427777 Ry
     Harris-Foulkes estimate   =    -303.04427718 Ry
     estimated scf accuracy    <       0.00000147 Ry

     iteration #  7     ecut=    40.00 Ry     beta=0.30
     Davidson diagonalization with overlap
     ethr =  3.05E-09,  avg # of iterations =  3.0

     total cpu time spent up to now is     1130.8 secs

     total energy              =    -303.04427762 Ry
     Harris-Foulkes estimate   =    -303.04427867 Ry
     estimated scf accuracy    <       0.00000232 Ry

     iteration #  8     ecut=    40.00 Ry     beta=0.30
     Davidson diagonalization with overlap
     ethr =  3.05E-09,  avg # of iterations =  2.0

     total cpu time spent up to now is     1198.1 secs

     End of self-consistent calculation

     Number of k-points >= 100: set verbosity='high' to print the bands.

!    total energy              =    -303.04427807 Ry
     Harris-Foulkes estimate   =    -303.04427806 Ry
     estimated scf accuracy    <       0.00000004 Ry

     The total energy is the sum of the following terms:

     one-electron contribution =    -116.93673669 Ry
     hartree contribution      =      66.56939058 Ry
     xc contribution           =     -46.74959848 Ry
     ewald contribution        =    -205.92733348 Ry

     convergence has been achieved in   8 iterations

     Forces acting on atoms (Ry/au):

     atom    1 type  2   force =     0.00057207   -0.00089974    0.00079018
     atom    2 type  2   force =    -0.00187345    0.00051524    0.00010232
     atom    3 type  2   force =     0.00221141   -0.00051461   -0.00163208
     atom    4 type  2   force =    -0.00107656    0.00090632   -0.00078762
     atom    5 type  1   force =    -0.00078903    0.00003419    0.00057801
     atom    6 type  1   force =     0.00064787   -0.00005842    0.00010821
     atom    7 type  1   force =    -0.00058556    0.00005701   -0.00034812
     atom    8 type  1   force =     0.00047662   -0.00003730    0.00331336
     atom    9 type  1   force =     0.00000852    0.00000691    0.00140066
     atom   10 type  1   force =    -0.00016781   -0.00001247    0.00139967
     atom   11 type  1   force =     0.00058145    0.00001125   -0.00352577
     atom   12 type  1   force =    -0.00000554   -0.00000837   -0.00139881

     Total force =     0.006907     Total SCF correction =     0.000152


     entering subroutine stress ...

          total   stress  (Ry/bohr**3)                   (kbar)     P=   38.97
   0.00025782   0.00000018  -0.00000180         37.93      0.03     -0.26
   0.00000018   0.00026744   0.00000016          0.03     39.34      0.02
  -0.00000180   0.00000016   0.00026953         -0.26      0.02     39.65


     number of scf cycles    =   2
     number of bfgs steps    =   1

     enthalpy old            =    -302.3757820642 Ry
     enthalpy new            =    -302.3991690873 Ry

     CASE: enthalpy_new < enthalpy_old

     new trust radius        =       0.1444679156 bohr
     new conv_thr            =       0.0000000353 Ry

     new unit-cell volume =    884.84379 a.u.^3 (   131.12032 Ang^3 )

CELL_PARAMETERS (alat= 11.28030000)
   0.961641662   0.000010548  -0.000130255
   0.000006375   0.581360116   0.000005642
  -0.000149306   0.000010700   1.102671533

ATOMIC_POSITIONS (crystal)
Ca       0.240082184   0.249538878   0.110001266
Ca       0.259488278  -0.249728157   0.609806809
Ca       0.740610161   0.249728323   0.389773317
Ca      -0.240225413  -0.249536609  -0.109979614
H        0.355503188   0.250011315   0.426664876
H        0.144453166  -0.250019171   0.926537871
H        0.855563643   0.250018687   0.073401870
H       -0.355599499  -0.250012355  -0.428678013
H        0.975391099   0.250002295   0.676741056
H       -0.475441160  -0.250004328   1.176737985
H        1.475563828   0.250003912  -0.174272319
H       -0.975389475  -0.250002791  -0.676735105



     Writing output data file CaH2_ambient.save
     NEW-OLD atomic charge density approx. for the potential
     NEW k-points: (use verbosity='high' to print them)
     extrapolated charge   45.10032, renormalised to   48.00000

     total cpu time spent up to now is     1289.1 secs

     per-process dynamical memory:    23.0 Mb

     Self-consistent Calculation

     iteration #  1     ecut=    40.00 Ry     beta=0.30
     Davidson diagonalization with overlap
     ethr =  1.00E-06,  avg # of iterations =  5.2

     total cpu time spent up to now is     1406.2 secs

     total energy              =    -302.88477586 Ry
     Harris-Foulkes estimate   =    -307.00906994 Ry
     estimated scf accuracy    <       0.24569765 Ry

     iteration #  2     ecut=    40.00 Ry     beta=0.30
     Davidson diagonalization with overlap
     ethr =  5.12E-04,  avg # of iterations =  2.0

     total cpu time spent up to now is     1473.5 secs

     total energy              =    -303.02093384 Ry
     Harris-Foulkes estimate   =    -303.02491709 Ry
     estimated scf accuracy    <       0.01655582 Ry

     iteration #  3     ecut=    40.00 Ry     beta=0.30
     Davidson diagonalization with overlap
     ethr =  3.45E-05,  avg # of iterations =  1.0

     total cpu time spent up to now is     1518.0 secs

     total energy              =    -303.01436306 Ry
     Harris-Foulkes estimate   =    -303.02131516 Ry
     estimated scf accuracy    <       0.00961872 Ry

     iteration #  4     ecut=    40.00 Ry     beta=0.30
     Davidson diagonalization with overlap
     ethr =  2.00E-05,  avg # of iterations =  2.0

     total cpu time spent up to now is     1585.3 secs

     total energy              =    -303.01661211 Ry
     Harris-Foulkes estimate   =    -303.01659113 Ry
     estimated scf accuracy    <       0.00048304 Ry

     iteration #  5     ecut=    40.00 Ry     beta=0.30
     Davidson diagonalization with overlap
     ethr =  1.01E-06,  avg # of iterations =  1.1

     total cpu time spent up to now is     1628.3 secs

     total energy              =    -303.01657439 Ry
     Harris-Foulkes estimate   =    -303.01662520 Ry
     estimated scf accuracy    <       0.00016216 Ry

     iteration #  6     ecut=    40.00 Ry     beta=0.30
     Davidson diagonalization with overlap
     ethr =  3.38E-07,  avg # of iterations =  1.9

     total cpu time spent up to now is     1674.5 secs

     total energy              =    -303.01659034 Ry
     Harris-Foulkes estimate   =    -303.01658832 Ry
     estimated scf accuracy    <       0.00000344 Ry

     iteration #  7     ecut=    40.00 Ry     beta=0.30
     Davidson diagonalization with overlap
     ethr =  7.17E-09,  avg # of iterations =  3.0

     total cpu time spent up to now is     1749.0 secs

     total energy              =    -303.01658935 Ry
     Harris-Foulkes estimate   =    -303.01659287 Ry
     estimated scf accuracy    <       0.00000714 Ry

     iteration #  8     ecut=    40.00 Ry     beta=0.30
     Davidson diagonalization with overlap
     ethr =  7.17E-09,  avg # of iterations =  2.0

     total cpu time spent up to now is     1816.7 secs

     total energy              =    -303.01659072 Ry
     Harris-Foulkes estimate   =    -303.01659070 Ry
     estimated scf accuracy    <       0.00000008 Ry

     iteration #  9     ecut=    40.00 Ry     beta=0.30
     Davidson diagonalization with overlap
     ethr =  1.61E-10,  avg # of iterations =  2.0

     total cpu time spent up to now is     1867.4 secs

     End of self-consistent calculation

     Number of k-points >= 100: set verbosity='high' to print the bands.

!    total energy              =    -303.01659073 Ry
     Harris-Foulkes estimate   =    -303.01659072 Ry
     estimated scf accuracy    <       0.00000001 Ry

     The total energy is the sum of the following terms:

     one-electron contribution =    -109.54476895 Ry
     hartree contribution      =      64.28450169 Ry
     xc contribution           =     -46.95986397 Ry
     ewald contribution        =    -210.79645950 Ry

     convergence has been achieved in   9 iterations

     Forces acting on atoms (Ry/au):

     atom    1 type  2   force =     0.00201152   -0.00051109    0.00239672
     atom    2 type  2   force =    -0.00225034    0.00017835    0.00230605
     atom    3 type  2   force =     0.00238990   -0.00017706   -0.00276626
     atom    4 type  2   force =    -0.00236597    0.00053025   -0.00273042
     atom    5 type  1   force =    -0.00128985    0.00010360    0.00028587
     atom    6 type  1   force =     0.00128214   -0.00018137    0.00003926
     atom    7 type  1   force =    -0.00120984    0.00017737   -0.00031753
     atom    8 type  1   force =     0.00118805   -0.00011078    0.00282274
     atom    9 type  1   force =     0.00013497    0.00003264    0.00352154
     atom   10 type  1   force =    -0.00020204   -0.00005143    0.00358044
     atom   11 type  1   force =     0.00046416    0.00004746   -0.00548771
     atom   12 type  1   force =    -0.00015272   -0.00003795   -0.00365070

     Total force =     0.011427     Total SCF correction =     0.000177


     entering subroutine stress ...

          total   stress  (Ry/bohr**3)                   (kbar)     P=   90.71
   0.00059299   0.00000042  -0.00000184         87.23      0.06     -0.27
   0.00000042   0.00062464   0.00000048          0.06     91.89      0.07
  -0.00000184   0.00000048   0.00063231         -0.27      0.07     93.02


     number of scf cycles    =   3
     number of bfgs steps    =   2

     enthalpy old            =    -302.3991690873 Ry
     enthalpy new            =    -302.4150860463 Ry

     CASE: enthalpy_new < enthalpy_old

     new trust radius        =       0.0295992637 bohr
     new conv_thr            =       0.0000000549 Ry

     new unit-cell volume =    873.57498 a.u.^3 (   129.45045 Ang^3 )

CELL_PARAMETERS (alat= 11.28030000)
   0.956857639   0.000023031  -0.000190588
   0.000013921   0.579021713   0.000014022
  -0.000218583   0.000026593   1.098489916

ATOMIC_POSITIONS (crystal)
Ca       0.240295102   0.249423410   0.110224611
Ca       0.259224428  -0.249680971   0.610009883
Ca       0.740894916   0.249681371   0.389502474
Ca      -0.240484161  -0.249417742  -0.110232000
H        0.355357872   0.250029644   0.426700356
H        0.144594807  -0.250051211   0.926543296
H        0.855430524   0.250050016   0.073367796
H       -0.355470853  -0.250031974  -0.428371865
H        0.975404689   0.250007950   0.677073746
H       -0.475464854  -0.250013277   1.177075803
H        1.475622307   0.250012160  -0.174815059
H       -0.975404778  -0.250009376  -0.677079041



     Writing output data file CaH2_ambient.save
     NEW-OLD atomic charge density approx. for the potential
     NEW k-points: (use verbosity='high' to print them)
     extrapolated charge   47.48401, renormalised to   48.00000

     total cpu time spent up to now is     1958.5 secs

     per-process dynamical memory:    23.0 Mb

     Self-consistent Calculation

     iteration #  1     ecut=    40.00 Ry     beta=0.30
     Davidson diagonalization with overlap
     ethr =  1.00E-06,  avg # of iterations =  3.4

     total cpu time spent up to now is     2053.9 secs

     total energy              =    -303.00485382 Ry
     Harris-Foulkes estimate   =    -303.72395373 Ry
     estimated scf accuracy    <       0.00711862 Ry

     iteration #  2     ecut=    40.00 Ry     beta=0.30
     Davidson diagonalization with overlap
     ethr =  1.48E-05,  avg # of iterations =  2.0

     total cpu time spent up to now is     2123.2 secs

     total energy              =    -303.00951905 Ry
     Harris-Foulkes estimate   =    -303.00959104 Ry
     estimated scf accuracy    <       0.00034092 Ry

     iteration #  3     ecut=    40.00 Ry     beta=0.30
     Davidson diagonalization with overlap
     ethr =  7.10E-07,  avg # of iterations =  1.0

     total cpu time spent up to now is     2166.2 secs

     total energy              =    -303.00939163 Ry
     Harris-Foulkes estimate   =    -303.00952731 Ry
     estimated scf accuracy    <       0.00020835 Ry

     iteration #  4     ecut=    40.00 Ry     beta=0.30
     Davidson diagonalization with overlap
     ethr =  4.34E-07,  avg # of iterations =  2.0

     total cpu time spent up to now is     2228.9 secs

     total energy              =    -303.00943039 Ry
     Harris-Foulkes estimate   =    -303.00943099 Ry
     estimated scf accuracy    <       0.00000966 Ry

     iteration #  5     ecut=    40.00 Ry     beta=0.30
     Davidson diagonalization with overlap
     ethr =  2.01E-08,  avg # of iterations =  1.2

     total cpu time spent up to now is     2272.2 secs

     total energy              =    -303.00943077 Ry
     Harris-Foulkes estimate   =    -303.00943077 Ry
     estimated scf accuracy    <       0.00000251 Ry

     iteration #  6     ecut=    40.00 Ry     beta=0.30
     Davidson diagonalization with overlap
     ethr =  5.24E-09,  avg # of iterations =  1.1

     total cpu time spent up to now is     2315.1 secs

     total energy              =    -303.00943082 Ry
     Harris-Foulkes estimate   =    -303.00943082 Ry
     estimated scf accuracy    <       0.00000009 Ry

     iteration #  7     ecut=    40.00 Ry     beta=0.30
     Davidson diagonalization with overlap
     ethr =  1.80E-10,  avg # of iterations =  2.8

     total cpu time spent up to now is     2378.3 secs

     total energy              =    -303.00943084 Ry
     Harris-Foulkes estimate   =    -303.00943085 Ry
     estimated scf accuracy    <       0.00000006 Ry

     iteration #  8     ecut=    40.00 Ry     beta=0.30
     Davidson diagonalization with overlap
     ethr =  1.16E-10,  avg # of iterations =  2.0

     total cpu time spent up to now is     2437.6 secs

     End of self-consistent calculation

     Number of k-points >= 100: set verbosity='high' to print the bands.

!    total energy              =    -303.00943085 Ry
     Harris-Foulkes estimate   =    -303.00943085 Ry
     estimated scf accuracy    <          2.2E-09 Ry

     The total energy is the sum of the following terms:

     one-electron contribution =    -108.16070503 Ry
     hartree contribution      =      63.85704326 Ry
     xc contribution           =     -46.99887537 Ry
     ewald contribution        =    -211.70689372 Ry

     convergence has been achieved in   8 iterations

     Forces acting on atoms (Ry/au):

     atom    1 type  2   force =     0.00204586   -0.00044028    0.00209047
     atom    2 type  2   force =    -0.00204521    0.00007812    0.00220127
     atom    3 type  2   force =     0.00204902   -0.00007774   -0.00227443
     atom    4 type  2   force =    -0.00224692    0.00046490   -0.00241007
     atom    5 type  1   force =    -0.00138144    0.00011462    0.00043191
     atom    6 type  1   force =     0.00141427   -0.00021067    0.00026199
     atom    7 type  1   force =    -0.00135670    0.00020627   -0.00054540
     atom    8 type  1   force =     0.00136317   -0.00012263    0.00213046
     atom    9 type  1   force =     0.00006280    0.00003914    0.00368198
     atom   10 type  1   force =    -0.00008575   -0.00006565    0.00375576
     atom   11 type  1   force =     0.00026240    0.00006051   -0.00548330
     atom   12 type  1   force =    -0.00008152   -0.00004659   -0.00384063

     Total force =     0.011119     Total SCF correction =     0.000065


     entering subroutine stress ...

          total   stress  (Ry/bohr**3)                   (kbar)     P=  100.96
   0.00066235   0.00000040  -0.00000115         97.44      0.06     -0.17
   0.00000040   0.00069211   0.00000055          0.06    101.81      0.08
  -0.00000115   0.00000055   0.00070455         -0.17      0.08    103.64


     number of scf cycles    =   4
     number of bfgs steps    =   3

     enthalpy old            =    -302.4150860463 Ry
     enthalpy new            =    -302.4155865528 Ry

     CASE: enthalpy_new < enthalpy_old

     new trust radius        =       0.0076873295 bohr
     new conv_thr            =       0.0000000501 Ry

     new unit-cell volume =    872.17237 a.u.^3 (   129.24261 Ang^3 )

CELL_PARAMETERS (alat= 11.28030000)
   0.955613997   0.000035510  -0.000230033
   0.000021463   0.578825030   0.000024031
  -0.000263999   0.000045578   1.098526653

ATOMIC_POSITIONS (crystal)
Ca       0.240525254   0.249334706   0.110435449
Ca       0.258985800  -0.249660829   0.610226714
Ca       0.741137284   0.249661325   0.389268428
Ca      -0.240740970  -0.249324584  -0.110474218
H        0.355202096   0.250050791   0.426742374
H        0.144753118  -0.250089813   0.926566135
H        0.855279110   0.250087805   0.073316575
H       -0.355319591  -0.250054591  -0.428143955
H        0.975412791   0.250015095   0.677435567
H       -0.475476949  -0.250025132   1.177444625
H        1.475657001   0.250023080  -0.175361743
H       -0.975414945  -0.250017853  -0.677455951



     Writing output data file CaH2_ambient.save
     NEW-OLD atomic charge density approx. for the potential
     NEW k-points: (use verbosity='high' to print them)
     extrapolated charge   47.93567, renormalised to   48.00000

     total cpu time spent up to now is     2530.1 secs

     per-process dynamical memory:    23.0 Mb

     Self-consistent Calculation

     iteration #  1     ecut=    40.00 Ry     beta=0.30
     Davidson diagonalization with overlap
     ethr =  1.00E-06,  avg # of iterations =  3.0

     total cpu time spent up to now is     2616.2 secs

     total energy              =    -303.00855995 Ry
     Harris-Foulkes estimate   =    -303.09785542 Ry
     estimated scf accuracy    <       0.00011047 Ry

     iteration #  2     ecut=    40.00 Ry     beta=0.30
     Davidson diagonalization with overlap
     ethr =  2.30E-07,  avg # of iterations =  2.0

     total cpu time spent up to now is     2683.3 secs

     total energy              =    -303.00863286 Ry
     Harris-Foulkes estimate   =    -303.00863416 Ry
     estimated scf accuracy    <       0.00000865 Ry

     iteration #  3     ecut=    40.00 Ry     beta=0.30
     Davidson diagonalization with overlap
     ethr =  1.80E-08,  avg # of iterations =  1.0

     total cpu time spent up to now is     2726.0 secs

     total energy              =    -303.00863058 Ry
     Harris-Foulkes estimate   =    -303.00863301 Ry
     estimated scf accuracy    <       0.00000505 Ry

     iteration #  4     ecut=    40.00 Ry     beta=0.30
     Davidson diagonalization with overlap
     ethr =  1.05E-08,  avg # of iterations =  2.0

     total cpu time spent up to now is     2776.7 secs

     total energy              =    -303.00863126 Ry
     Harris-Foulkes estimate   =    -303.00863125 Ry
     estimated scf accuracy    <       0.00000019 Ry

     iteration #  5     ecut=    40.00 Ry     beta=0.30
     Davidson diagonalization with overlap
     ethr =  3.99E-10,  avg # of iterations =  1.6

     total cpu time spent up to now is     2821.0 secs

     total energy              =    -303.00863125 Ry
     Harris-Foulkes estimate   =    -303.00863127 Ry
     estimated scf accuracy    <       0.00000006 Ry

     iteration #  6     ecut=    40.00 Ry     beta=0.30
     Davidson diagonalization with overlap
     ethr =  1.34E-10,  avg # of iterations =  2.0

     total cpu time spent up to now is     2880.9 secs

     End of self-consistent calculation

     Number of k-points >= 100: set verbosity='high' to print the bands.

!    total energy              =    -303.00863126 Ry
     Harris-Foulkes estimate   =    -303.00863126 Ry
     estimated scf accuracy    <          3.6E-09 Ry

     The total energy is the sum of the following terms:

     one-electron contribution =    -107.97334119 Ry
     hartree contribution      =      63.79536222 Ry
     xc contribution           =     -47.00299599 Ry
     ewald contribution        =    -211.82765629 Ry

     convergence has been achieved in   6 iterations

     Forces acting on atoms (Ry/au):

     atom    1 type  2   force =     0.00179346   -0.00042883    0.00148896
     atom    2 type  2   force =    -0.00172129    0.00003117    0.00168526
     atom    3 type  2   force =     0.00164530   -0.00003237   -0.00156088
     atom    4 type  2   force =    -0.00187365    0.00045465   -0.00173856
     atom    5 type  1   force =    -0.00138584    0.00010907    0.00060252
     atom    6 type  1   force =     0.00142570   -0.00021632    0.00048071
     atom    7 type  1   force =    -0.00138769    0.00021307   -0.00074406
     atom    8 type  1   force =     0.00140587   -0.00011689    0.00150725
     atom    9 type  1   force =    -0.00004017    0.00003899    0.00342651
     atom   10 type  1   force =     0.00004707   -0.00007144    0.00350374
     atom   11 type  1   force =     0.00006685    0.00006629   -0.00506556
     atom   12 type  1   force =     0.00002439   -0.00004740   -0.00358588

     Total force =     0.009862     Total SCF correction =     0.000124


     entering subroutine stress ...

          total   stress  (Ry/bohr**3)                   (kbar)     P=  102.01
   0.00067273   0.00000033  -0.00000049         98.96      0.05     -0.07
   0.00000033   0.00069638   0.00000059          0.05    102.44      0.09
  -0.00000049   0.00000059   0.00071131         -0.07      0.09    104.64


     number of scf cycles    =   5
     number of bfgs steps    =   4

     enthalpy old            =    -302.4155865528 Ry
     enthalpy new            =    -302.4157404268 Ry

     CASE: enthalpy_new < enthalpy_old


     WARNING: bfgs curvature condition failed, Theta= 0.981
     new trust radius        =       0.0084602796 bohr
     new conv_thr            =       0.0000000154 Ry

     new unit-cell volume =    871.66870 a.u.^3 (   129.16797 Ang^3 )

CELL_PARAMETERS (alat= 11.28030000)
   0.954549245   0.000050018  -0.000264137
   0.000030231   0.578818937   0.000037721
  -0.000303402   0.000071549   1.099128496

ATOMIC_POSITIONS (crystal)
Ca       0.240805030   0.249222965   0.110663872
Ca       0.258705036  -0.249643740   0.610471747
Ca       0.741414585   0.249644119   0.389020410
Ca      -0.241043369  -0.249206778  -0.110738523
H        0.354997465   0.250077816   0.426810710
H        0.144962151  -0.250141594   0.926614084
H        0.855077218   0.250138690   0.073233191
H       -0.355116493  -0.250083515  -0.427900710
H        0.975413872   0.250024522   0.677891102
H       -0.475480110  -0.250041683   1.177909726
H        1.475683109   0.250038391  -0.176044044
H       -0.975418495  -0.250029191  -0.677931563



     Writing output data file CaH2_ambient.save
     NEW-OLD atomic charge density approx. for the potential
     NEW k-points: (use verbosity='high' to print them)
     extrapolated charge   47.97689, renormalised to   48.00000

     total cpu time spent up to now is     2972.4 secs

     per-process dynamical memory:    23.0 Mb

     Self-consistent Calculation

     iteration #  1     ecut=    40.00 Ry     beta=0.30
     Davidson diagonalization with overlap
     ethr =  1.00E-06,  avg # of iterations =  3.0

     Threshold (ethr) on eigenvalues was too large:
     Diagonalizing with lowered threshold

     Davidson diagonalization with overlap
     ethr =  4.45E-08,  avg # of iterations =  1.3

     total cpu time spent up to now is     3101.2 secs

     total energy              =    -303.00845099 Ry
     Harris-Foulkes estimate   =    -303.04050111 Ry
     estimated scf accuracy    <       0.00002146 Ry

     iteration #  2     ecut=    40.00 Ry     beta=0.30
     Davidson diagonalization with overlap
     ethr =  4.47E-08,  avg # of iterations =  2.0

     total cpu time spent up to now is     3168.6 secs

     total energy              =    -303.00845995 Ry
     Harris-Foulkes estimate   =    -303.00846057 Ry
     estimated scf accuracy    <       0.00000620 Ry

     iteration #  3     ecut=    40.00 Ry     beta=0.30
     Davidson diagonalization with overlap
     ethr =  1.29E-08,  avg # of iterations =  1.0

     total cpu time spent up to now is     3211.6 secs

     total energy              =    -303.00845891 Ry
     Harris-Foulkes estimate   =    -303.00845999 Ry
     estimated scf accuracy    <       0.00000329 Ry

     iteration #  4     ecut=    40.00 Ry     beta=0.30
     Davidson diagonalization with overlap
     ethr =  6.86E-09,  avg # of iterations =  2.0

     total cpu time spent up to now is     3262.5 secs

     total energy              =    -303.00845924 Ry
     Harris-Foulkes estimate   =    -303.00845922 Ry
     estimated scf accuracy    <       0.00000008 Ry

     iteration #  5     ecut=    40.00 Ry     beta=0.30
     Davidson diagonalization with overlap
     ethr =  1.59E-10,  avg # of iterations =  2.0

     total cpu time spent up to now is     3312.0 secs

     total energy              =    -303.00845923 Ry
     Harris-Foulkes estimate   =    -303.00845924 Ry
     estimated scf accuracy    <       0.00000003 Ry

     iteration #  6     ecut=    40.00 Ry     beta=0.30
     Davidson diagonalization with overlap
     ethr =  6.94E-11,  avg # of iterations =  2.0

     total cpu time spent up to now is     3362.0 secs

     End of self-consistent calculation

     Number of k-points >= 100: set verbosity='high' to print the bands.

!    total energy              =    -303.00845923 Ry
     Harris-Foulkes estimate   =    -303.00845923 Ry
     estimated scf accuracy    <          4.6E-09 Ry

     The total energy is the sum of the following terms:

     one-electron contribution =    -107.89362496 Ry
     hartree contribution      =      63.76582159 Ry
     xc contribution           =     -47.00375655 Ry
     ewald contribution        =    -211.87689932 Ry

     convergence has been achieved in   6 iterations

     Forces acting on atoms (Ry/au):

     atom    1 type  2   force =     0.00147898   -0.00041041    0.00082456
     atom    2 type  2   force =    -0.00134117   -0.00001518    0.00108454
     atom    3 type  2   force =     0.00119774    0.00001163   -0.00076781
     atom    4 type  2   force =    -0.00144369    0.00043527   -0.00099063
     atom    5 type  1   force =    -0.00137730    0.00009853    0.00075193
     atom    6 type  1   force =     0.00142045   -0.00021980    0.00068748
     atom    7 type  1   force =    -0.00140233    0.00021884   -0.00091093
     atom    8 type  1   force =     0.00143092   -0.00010569    0.00083935
     atom    9 type  1   force =    -0.00015994    0.00003743    0.00306541
     atom   10 type  1   force =     0.00019770   -0.00007693    0.00314478
     atom   11 type  1   force =    -0.00015002    0.00007254   -0.00451001
     atom   12 type  1   force =     0.00014866   -0.00004624   -0.00321867

     Total force =     0.008486     Total SCF correction =     0.000163


     entering subroutine stress ...

          total   stress  (Ry/bohr**3)                   (kbar)     P=  102.18
   0.00067797   0.00000023   0.00000018         99.73      0.03      0.03
   0.00000023   0.00069484   0.00000063          0.03    102.21      0.09
   0.00000018   0.00000063   0.00071096          0.03      0.09    104.59


     number of scf cycles    =   6
     number of bfgs steps    =   5

     enthalpy old            =    -302.4157404268 Ry
     enthalpy new            =    -302.4159107957 Ry

     CASE: enthalpy_new < enthalpy_old

     new trust radius        =       0.0126973708 bohr
     new conv_thr            =       0.0000000170 Ry

     new unit-cell volume =    871.50976 a.u.^3 (   129.14442 Ang^3 )

CELL_PARAMETERS (alat= 11.28030000)
   0.953234175   0.000069688  -0.000293228
   0.000042117   0.578893902   0.000060626
  -0.000337347   0.000115002   1.100301675

ATOMIC_POSITIONS (crystal)
Ca       0.241210269   0.249050416   0.110950750
Ca       0.258309317  -0.249628167   0.610793815
Ca       0.741795079   0.249627829   0.388718610
Ca      -0.241468479  -0.249024734  -0.111073106
H        0.354671869   0.250118714   0.426937136
H        0.145295485  -0.250225281   0.926715281
H        0.854752559   0.250221454   0.073080224
H       -0.354788277  -0.250127300  -0.427594306
H        0.975399434   0.250039290   0.678577343
H       -0.475464584  -0.250069421   1.178611564
H        1.475694740   0.250064310  -0.177068005
H       -0.975407412  -0.250047111  -0.678649305



     Writing output data file CaH2_ambient.save
     NEW-OLD atomic charge density approx. for the potential
     NEW k-points: (use verbosity='high' to print them)
     extrapolated charge   47.99271, renormalised to   48.00000

     total cpu time spent up to now is     3452.9 secs

     per-process dynamical memory:    23.0 Mb

     Self-consistent Calculation

     iteration #  1     ecut=    40.00 Ry     beta=0.30
     Davidson diagonalization with overlap
     ethr =  1.00E-06,  avg # of iterations =  3.4

     Threshold (ethr) on eigenvalues was too large:
     Diagonalizing with lowered threshold

     Davidson diagonalization with overlap
     ethr =  4.31E-08,  avg # of iterations =  1.7

     total cpu time spent up to now is     3588.2 secs

     total energy              =    -303.00856046 Ry
     Harris-Foulkes estimate   =    -303.01867037 Ry
     estimated scf accuracy    <       0.00002060 Ry

     iteration #  2     ecut=    40.00 Ry     beta=0.30
     Davidson diagonalization with overlap
     ethr =  4.29E-08,  avg # of iterations =  1.0

     total cpu time spent up to now is     3632.1 secs

     total energy              =    -303.00855889 Ry
     Harris-Foulkes estimate   =    -303.00856143 Ry
     estimated scf accuracy    <       0.00001236 Ry

     iteration #  3     ecut=    40.00 Ry     beta=0.30
     Davidson diagonalization with overlap
     ethr =  2.58E-08,  avg # of iterations =  1.9

     total cpu time spent up to now is     3677.8 secs

     total energy              =    -303.00855875 Ry
     Harris-Foulkes estimate   =    -303.00855932 Ry
     estimated scf accuracy    <       0.00000165 Ry

     iteration #  4     ecut=    40.00 Ry     beta=0.30
     Davidson diagonalization with overlap
     ethr =  3.43E-09,  avg # of iterations =  2.0

     total cpu time spent up to now is     3728.9 secs

     total energy              =    -303.00855893 Ry
     Harris-Foulkes estimate   =    -303.00855891 Ry
     estimated scf accuracy    <       0.00000013 Ry

     iteration #  5     ecut=    40.00 Ry     beta=0.30
     Davidson diagonalization with overlap
     ethr =  2.77E-10,  avg # of iterations =  2.0

     total cpu time spent up to now is     3775.0 secs

     total energy              =    -303.00855892 Ry
     Harris-Foulkes estimate   =    -303.00855894 Ry
     estimated scf accuracy    <       0.00000004 Ry

     iteration #  6     ecut=    40.00 Ry     beta=0.30
     Davidson diagonalization with overlap
     ethr =  8.42E-11,  avg # of iterations =  2.0

     total cpu time spent up to now is     3825.7 secs

     End of self-consistent calculation

     Number of k-points >= 100: set verbosity='high' to print the bands.

!    total energy              =    -303.00855892 Ry
     Harris-Foulkes estimate   =    -303.00855892 Ry
     estimated scf accuracy    <          9.3E-09 Ry

     The total energy is the sum of the following terms:

     one-electron contribution =    -107.84921455 Ry
     hartree contribution      =      63.74489648 Ry
     xc contribution           =     -47.00281586 Ry
     ewald contribution        =    -211.90142499 Ry

     convergence has been achieved in   6 iterations

     Forces acting on atoms (Ry/au):

     atom    1 type  2   force =     0.00104023   -0.00037222   -0.00001333
     atom    2 type  2   force =    -0.00082894   -0.00007155    0.00026419
     atom    3 type  2   force =     0.00060950    0.00006531    0.00022781
     atom    4 type  2   force =    -0.00085137    0.00038664    0.00000744
     atom    5 type  1   force =    -0.00134660    0.00008007    0.00087396
     atom    6 type  1   force =     0.00138670   -0.00022054    0.00089271
     atom    7 type  1   force =    -0.00139584    0.00022499   -0.00103809
     atom    8 type  1   force =     0.00143025   -0.00008459    0.00000053
     atom    9 type  1   force =    -0.00031938    0.00003452    0.00252113
     atom   10 type  1   force =     0.00039187   -0.00008286    0.00259926
     atom   11 type  1   force =    -0.00043008    0.00008186   -0.00368022
     atom   12 type  1   force =     0.00031365   -0.00004163   -0.00265540

     Total force =     0.006930     Total SCF correction =     0.000234


     entering subroutine stress ...

          total   stress  (Ry/bohr**3)                   (kbar)     P=  101.86
   0.00068144   0.00000009   0.00000100        100.24      0.01      0.15
   0.00000009   0.00069029   0.00000070          0.01    101.54      0.10
   0.00000100   0.00000070   0.00070555          0.15      0.10    103.79


     number of scf cycles    =   7
     number of bfgs steps    =   6

     enthalpy old            =    -302.4159107957 Ry
     enthalpy new            =    -302.4161185303 Ry

     CASE: enthalpy_new < enthalpy_old

     new trust radius        =       0.0190663693 bohr
     new conv_thr            =       0.0000000208 Ry

     new unit-cell volume =    871.53487 a.u.^3 (   129.14814 Ang^3 )

CELL_PARAMETERS (alat= 11.28030000)
   0.951463079   0.000095130  -0.000302336
   0.000057489   0.579010632   0.000099417
  -0.000348999   0.000188582   1.102159371

ATOMIC_POSITIONS (crystal)
Ca       0.241793494   0.248783301   0.111292046
Ca       0.257755995  -0.249619973   0.611196430
Ca       0.742310236   0.249617739   0.388377422
Ca      -0.242057459  -0.248744947  -0.111468789
H        0.354150505   0.250179961   0.427160141
H        0.145829203  -0.250361066   0.926910061
H        0.854228268   0.250357189   0.072812875
H       -0.354256942  -0.250192525  -0.427225126
H        0.975349627   0.250062461   0.679609798
H       -0.475406905  -0.250116007   1.179669160
H        1.475666101   0.250108828  -0.178603803
H       -0.975362123  -0.250074961  -0.679730216



     Writing output data file CaH2_ambient.save
     NEW-OLD atomic charge density approx. for the potential
     NEW k-points: (use verbosity='high' to print them)
     extrapolated charge   48.00115, renormalised to   48.00000

     total cpu time spent up to now is     3916.8 secs

     per-process dynamical memory:    23.0 Mb

     Self-consistent Calculation

     iteration #  1     ecut=    40.00 Ry     beta=0.30
     Davidson diagonalization with overlap
     ethr =  1.00E-06,  avg # of iterations =  4.0

     Threshold (ethr) on eigenvalues was too large:
     Diagonalizing with lowered threshold

     Davidson diagonalization with overlap
     ethr =  9.43E-08,  avg # of iterations =  1.1

     total cpu time spent up to now is     4058.8 secs

     total energy              =    -303.00879498 Ry
     Harris-Foulkes estimate   =    -303.00720272 Ry
     estimated scf accuracy    <       0.00004503 Ry

     iteration #  2     ecut=    40.00 Ry     beta=0.30
     Davidson diagonalization with overlap
     ethr =  9.38E-08,  avg # of iterations =  1.0

     total cpu time spent up to now is     4103.5 secs

     total energy              =    -303.00878676 Ry
     Harris-Foulkes estimate   =    -303.00879522 Ry
     estimated scf accuracy    <       0.00002772 Ry

     iteration #  3     ecut=    40.00 Ry     beta=0.30
     Davidson diagonalization with overlap
     ethr =  5.77E-08,  avg # of iterations =  2.0

     total cpu time spent up to now is     4154.4 secs

     total energy              =    -303.00878905 Ry
     Harris-Foulkes estimate   =    -303.00878894 Ry
     estimated scf accuracy    <       0.00000045 Ry

     iteration #  4     ecut=    40.00 Ry     beta=0.30
     Davidson diagonalization with overlap
     ethr =  9.34E-10,  avg # of iterations =  2.0

     total cpu time spent up to now is     4202.5 secs

     total energy              =    -303.00878905 Ry
     Harris-Foulkes estimate   =    -303.00878908 Ry
     estimated scf accuracy    <       0.00000026 Ry

     iteration #  5     ecut=    40.00 Ry     beta=0.30
     Davidson diagonalization with overlap
     ethr =  5.32E-10,  avg # of iterations =  2.0

     total cpu time spent up to now is     4252.9 secs

     total energy              =    -303.00878907 Ry
     Harris-Foulkes estimate   =    -303.00878908 Ry
     estimated scf accuracy    <       0.00000003 Ry

     iteration #  6     ecut=    40.00 Ry     beta=0.30
     Davidson diagonalization with overlap
     ethr =  6.01E-11,  avg # of iterations =  1.5

     total cpu time spent up to now is     4298.2 secs

     End of self-consistent calculation

     Number of k-points >= 100: set verbosity='high' to print the bands.

!    total energy              =    -303.00878907 Ry
     Harris-Foulkes estimate   =    -303.00878907 Ry
     estimated scf accuracy    <       0.00000002 Ry

     The total energy is the sum of the following terms:

     one-electron contribution =    -107.81806354 Ry
     hartree contribution      =      63.72510693 Ry
     xc contribution           =     -47.00055914 Ry
     ewald contribution        =    -211.91527332 Ry

     convergence has been achieved in   6 iterations

     Forces acting on atoms (Ry/au):

     atom    1 type  2   force =     0.00045569   -0.00027890   -0.00098468
     atom    2 type  2   force =    -0.00015480   -0.00013550   -0.00074275
     atom    3 type  2   force =    -0.00011310    0.00012709    0.00139830
     atom    4 type  2   force =    -0.00010323    0.00027006    0.00119516
     atom    5 type  1   force =    -0.00128198    0.00004905    0.00090352
     atom    6 type  1   force =     0.00131069   -0.00021486    0.00103674
     atom    7 type  1   force =    -0.00135354    0.00022837   -0.00104648
     atom    8 type  1   force =     0.00138474   -0.00004857   -0.00099057
     atom    9 type  1   force =    -0.00051727    0.00002863    0.00173733
     atom   10 type  1   force =     0.00062388   -0.00008878    0.00180723
     atom   11 type  1   force =    -0.00076682    0.00009437   -0.00248278
     atom   12 type  1   force =     0.00051574   -0.00003096   -0.00183102

     Total force =     0.005819     Total SCF correction =     0.000304


     entering subroutine stress ...

          total   stress  (Ry/bohr**3)                   (kbar)     P=  101.16
   0.00068402  -0.00000011   0.00000188        100.62     -0.02      0.28
  -0.00000011   0.00068421   0.00000077         -0.02    100.65      0.11
   0.00000188   0.00000077   0.00069475          0.28      0.11    102.20


     number of scf cycles    =   8
     number of bfgs steps    =   7

     enthalpy old            =    -302.4161185303 Ry
     enthalpy new            =    -302.4163316111 Ry

     CASE: enthalpy_new < enthalpy_old

     new trust radius        =       0.0279412969 bohr
     new conv_thr            =       0.0000000213 Ry

     new unit-cell volume =    871.68182 a.u.^3 (   129.16992 Ang^3 )

CELL_PARAMETERS (alat= 11.28030000)
   0.949111976   0.000123130  -0.000253253
   0.000074418   0.579148491   0.000165579
  -0.000295351   0.000314016   1.104812884

ATOMIC_POSITIONS (crystal)
Ca       0.242599263   0.248385413   0.111628290
Ca       0.257025030  -0.249636176   0.611631107
Ca       0.742962778   0.249629872   0.388087044
Ca      -0.242828755  -0.248334657  -0.111848128
H        0.353317713   0.250267828   0.427537496
H        0.146680332  -0.250580486   0.927266755
H        0.853383921   0.250579938   0.072365403
H       -0.353400749  -0.250285065  -0.426852527
H        0.975219413   0.250098044   0.681125304
H       -0.475254223  -0.250194508   1.181224254
H        1.475533372   0.250186342  -0.180848004
H       -0.975238095  -0.250116544  -0.681316993



     Writing output data file CaH2_ambient.save
     NEW-OLD atomic charge density approx. for the potential
     NEW k-points: (use verbosity='high' to print them)
     extrapolated charge   48.00674, renormalised to   48.00000

     total cpu time spent up to now is     4389.5 secs

     per-process dynamical memory:    23.0 Mb

     Self-consistent Calculation

     iteration #  1     ecut=    40.00 Ry     beta=0.30
     Davidson diagonalization with overlap
     ethr =  1.00E-06,  avg # of iterations =  4.0

     total cpu time spent up to now is     4498.9 secs

     total energy              =    -303.00904494 Ry
     Harris-Foulkes estimate   =    -302.99972050 Ry
     estimated scf accuracy    <       0.00009996 Ry

     iteration #  2     ecut=    40.00 Ry     beta=0.30
     Davidson diagonalization with overlap
     ethr =  2.08E-07,  avg # of iterations =  1.0

     total cpu time spent up to now is     4542.2 secs

     total energy              =    -303.00902864 Ry
     Harris-Foulkes estimate   =    -303.00904655 Ry
     estimated scf accuracy    <       0.00005991 Ry

     iteration #  3     ecut=    40.00 Ry     beta=0.30
     Davidson diagonalization with overlap
     ethr =  1.25E-07,  avg # of iterations =  2.0

     total cpu time spent up to now is     4593.1 secs

     total energy              =    -303.00903201 Ry
     Harris-Foulkes estimate   =    -303.00903230 Ry
     estimated scf accuracy    <       0.00000140 Ry

     iteration #  4     ecut=    40.00 Ry     beta=0.30
     Davidson diagonalization with overlap
     ethr =  2.92E-09,  avg # of iterations =  2.0

     total cpu time spent up to now is     4641.8 secs

     total energy              =    -303.00903212 Ry
     Harris-Foulkes estimate   =    -303.00903210 Ry
     estimated scf accuracy    <       0.00000057 Ry

     iteration #  5     ecut=    40.00 Ry     beta=0.30
     Davidson diagonalization with overlap
     ethr =  1.19E-09,  avg # of iterations =  2.0

     total cpu time spent up to now is     4690.3 secs

     total energy              =    -303.00903212 Ry
     Harris-Foulkes estimate   =    -303.00903215 Ry
     estimated scf accuracy    <       0.00000008 Ry

     iteration #  6     ecut=    40.00 Ry     beta=0.30
     Davidson diagonalization with overlap
     ethr =  1.60E-10,  avg # of iterations =  2.0

     total cpu time spent up to now is     4739.3 secs

     total energy              =    -303.00903213 Ry
     Harris-Foulkes estimate   =    -303.00903212 Ry
     estimated scf accuracy    <       0.00000004 Ry

     iteration #  7     ecut=    40.00 Ry     beta=0.30
     Davidson diagonalization with overlap
     ethr =  7.64E-11,  avg # of iterations =  2.1

     total cpu time spent up to now is     4790.3 secs

     End of self-consistent calculation

     Number of k-points >= 100: set verbosity='high' to print the bands.

!    total energy              =    -303.00903213 Ry
     Harris-Foulkes estimate   =    -303.00903213 Ry
     estimated scf accuracy    <          1.4E-09 Ry

     The total energy is the sum of the following terms:

     one-electron contribution =    -107.79093685 Ry
     hartree contribution      =      63.70320658 Ry
     xc contribution           =     -46.99704949 Ry
     ewald contribution        =    -211.92425238 Ry

     convergence has been achieved in   7 iterations

     Forces acting on atoms (Ry/au):

     atom    1 type  2   force =    -0.00027686   -0.00009396   -0.00191188
     atom    2 type  2   force =     0.00062745   -0.00019298   -0.00184333
     atom    3 type  2   force =    -0.00087766    0.00018500    0.00251299
     atom    4 type  2   force =     0.00074278    0.00005183    0.00242803
     atom    5 type  1   force =    -0.00114018   -0.00000213    0.00067367
     atom    6 type  1   force =     0.00115207   -0.00019155    0.00098425
     atom    7 type  1   force =    -0.00122038    0.00021498   -0.00073882
     atom    8 type  1   force =     0.00124626    0.00000894   -0.00196917
     atom    9 type  1   force =    -0.00071975    0.00001562    0.00066789
     atom   10 type  1   force =     0.00084509   -0.00009189    0.00072459
     atom   11 type  1   force =    -0.00109424    0.00010598   -0.00083387
     atom   12 type  1   force =     0.00071543   -0.00000985   -0.00069436

     Total force =     0.006152     Total SCF correction =     0.000066


     entering subroutine stress ...

          total   stress  (Ry/bohr**3)                   (kbar)     P=  100.11
   0.00068541  -0.00000038   0.00000250        100.83     -0.06      0.37
  -0.00000038   0.00067880   0.00000080         -0.06     99.85      0.12
   0.00000250   0.00000080   0.00067749          0.37      0.12     99.66


     number of scf cycles    =   9
     number of bfgs steps    =   8

     enthalpy old            =    -302.4163316111 Ry
     enthalpy new            =    -302.4164747752 Ry

     CASE: enthalpy_new < enthalpy_old

     new trust radius        =       0.0077288348 bohr
     new conv_thr            =       0.0000000143 Ry

     new unit-cell volume =    871.74037 a.u.^3 (   129.17859 Ang^3 )

CELL_PARAMETERS (alat= 11.28030000)
   0.948651886   0.000120891  -0.000185833
   0.000073099   0.579179562   0.000192999
  -0.000219744   0.000365858   1.105363649

ATOMIC_POSITIONS (crystal)
Ca       0.242773778   0.248277535   0.111572654
Ca       0.256898022  -0.249666997   0.611601262
Ca       0.743051407   0.249658692   0.388198750
Ca      -0.242957009  -0.248230386  -0.111762646
H        0.353016532   0.250288517   0.427674601
H        0.146986741  -0.250661211   0.927423069
H        0.853073621   0.250664949   0.072207516
H       -0.353085587  -0.250305890  -0.426904687
H        0.975126558   0.250108826   0.681546021
H       -0.475145767  -0.250226769   1.181658800
H        1.475409015   0.250220514  -0.181458699
H       -0.975147310  -0.250127781  -0.681756642



     Writing output data file CaH2_ambient.save
     NEW-OLD atomic charge density approx. for the potential
     NEW k-points: (use verbosity='high' to print them)
     extrapolated charge   48.00269, renormalised to   48.00000

     total cpu time spent up to now is     4881.3 secs

     per-process dynamical memory:    23.0 Mb

     Self-consistent Calculation

     iteration #  1     ecut=    40.00 Ry     beta=0.30
     Davidson diagonalization with overlap
     ethr =  1.00E-06,  avg # of iterations =  3.0

     Threshold (ethr) on eigenvalues was too large:
     Diagonalizing with lowered threshold

     Davidson diagonalization with overlap
     ethr =  1.77E-08,  avg # of iterations =  2.3

     total cpu time spent up to now is     5005.5 secs

     total energy              =    -303.00911192 Ry
     Harris-Foulkes estimate   =    -303.00539480 Ry
     estimated scf accuracy    <       0.00000873 Ry

     iteration #  2     ecut=    40.00 Ry     beta=0.30
     Davidson diagonalization with overlap
     ethr =  1.82E-08,  avg # of iterations =  1.0

     total cpu time spent up to now is     5048.9 secs

     total energy              =    -303.00911043 Ry
     Harris-Foulkes estimate   =    -303.00911209 Ry
     estimated scf accuracy    <       0.00000525 Ry

     iteration #  3     ecut=    40.00 Ry     beta=0.30
     Davidson diagonalization with overlap
     ethr =  1.09E-08,  avg # of iterations =  2.0

     total cpu time spent up to now is     5098.1 secs

     total energy              =    -303.00911064 Ry
     Harris-Foulkes estimate   =    -303.00911069 Ry
     estimated scf accuracy    <       0.00000015 Ry

     iteration #  4     ecut=    40.00 Ry     beta=0.30
     Davidson diagonalization with overlap
     ethr =  3.14E-10,  avg # of iterations =  2.2

     total cpu time spent up to now is     5149.4 secs

     total energy              =    -303.00911066 Ry
     Harris-Foulkes estimate   =    -303.00911066 Ry
     estimated scf accuracy    <       0.00000003 Ry

     iteration #  5     ecut=    40.00 Ry     beta=0.30
     Davidson diagonalization with overlap
     ethr =  6.25E-11,  avg # of iterations =  2.0

     total cpu time spent up to now is     5194.2 secs

     End of self-consistent calculation

     Number of k-points >= 100: set verbosity='high' to print the bands.

!    total energy              =    -303.00911066 Ry
     Harris-Foulkes estimate   =    -303.00911066 Ry
     estimated scf accuracy    <          5.8E-09 Ry

     The total energy is the sum of the following terms:

     one-electron contribution =    -107.78772402 Ry
     hartree contribution      =      63.69929163 Ry
     xc contribution           =     -46.99614993 Ry
     ewald contribution        =    -211.92452833 Ry

     convergence has been achieved in   5 iterations

     Forces acting on atoms (Ry/au):

     atom    1 type  2   force =    -0.00040994   -0.00004402   -0.00178448
     atom    2 type  2   force =     0.00071023   -0.00018832   -0.00178893
     atom    3 type  2   force =    -0.00087838    0.00017978    0.00233418
     atom    4 type  2   force =     0.00081347    0.00000773    0.00227608
     atom    5 type  1   force =    -0.00103325   -0.00002093    0.00042037
     atom    6 type  1   force =     0.00103759   -0.00016968    0.00073310
     atom    7 type  1   force =    -0.00110035    0.00018954   -0.00042232
     atom    8 type  1   force =     0.00111542    0.00002705   -0.00179165
     atom    9 type  1   force =    -0.00069416    0.00000569    0.00043959
     atom   10 type  1   force =     0.00079674   -0.00008616    0.00048068
     atom   11 type  1   force =    -0.00104507    0.00009888   -0.00046817
     atom   12 type  1   force =     0.00068768    0.00000045   -0.00042847

     Total force =     0.005611     Total SCF correction =     0.000244


     entering subroutine stress ...

          total   stress  (Ry/bohr**3)                   (kbar)     P=   99.84
   0.00068394  -0.00000038   0.00000209        100.61     -0.06      0.31
  -0.00000038   0.00067989   0.00000070         -0.06    100.02      0.10
   0.00000209   0.00000070   0.00067223          0.31      0.10     98.89


     number of scf cycles    =  10
     number of bfgs steps    =   9

     enthalpy old            =    -302.4164747752 Ry
     enthalpy new            =    -302.4165134987 Ry

     CASE: enthalpy_new < enthalpy_old

     new trust radius        =       0.0085058847 bohr
     new conv_thr            =       0.0000000100 Ry

     new unit-cell volume =    871.71815 a.u.^3 (   129.17530 Ang^3 )

CELL_PARAMETERS (alat= 11.28030000)
   0.948285299   0.000108538  -0.000067392
   0.000065714   0.579236696   0.000231421
  -0.000086630   0.000438334   1.105653717

ATOMIC_POSITIONS (crystal)
Ca       0.242909575   0.248164008   0.111372156
Ca       0.256837636  -0.249728230   0.611423214
Ca       0.743060308   0.249716536   0.388501305
Ca      -0.243009954  -0.248126181  -0.111490490
H        0.352613064   0.250305064   0.427839879
H        0.147395606  -0.250769576   0.927634733
H        0.852655083   0.250780711   0.072023352
H       -0.352661151  -0.250321686  -0.427101222
H        0.974966401   0.250120117   0.682007508
H       -0.474960926  -0.250273191   1.182137339
H        1.475184396   0.250270894  -0.182112629
H       -0.974990038  -0.250138468  -0.682235147



     Writing output data file CaH2_ambient.save
     NEW-OLD atomic charge density approx. for the potential
     NEW k-points: (use verbosity='high' to print them)
     extrapolated charge   47.99898, renormalised to   48.00000

     total cpu time spent up to now is     5287.0 secs

     per-process dynamical memory:    23.0 Mb

     Self-consistent Calculation

     iteration #  1     ecut=    40.00 Ry     beta=0.30
     Davidson diagonalization with overlap
     ethr =  1.00E-06,  avg # of iterations =  3.0

     Threshold (ethr) on eigenvalues was too large:
     Diagonalizing with lowered threshold

     Davidson diagonalization with overlap
     ethr =  2.62E-08,  avg # of iterations =  1.9

     total cpu time spent up to now is     5415.4 secs

     total energy              =    -303.00915318 Ry
     Harris-Foulkes estimate   =    -303.01056525 Ry
     estimated scf accuracy    <       0.00001266 Ry

     iteration #  2     ecut=    40.00 Ry     beta=0.30
     Davidson diagonalization with overlap
     ethr =  2.64E-08,  avg # of iterations =  1.0

     total cpu time spent up to now is     5458.8 secs

     total energy              =    -303.00915068 Ry
     Harris-Foulkes estimate   =    -303.00915324 Ry
     estimated scf accuracy    <       0.00000782 Ry

     iteration #  3     ecut=    40.00 Ry     beta=0.30
     Davidson diagonalization with overlap
     ethr =  1.63E-08,  avg # of iterations =  2.0

     total cpu time spent up to now is     5510.2 secs

     total energy              =    -303.00915120 Ry
     Harris-Foulkes estimate   =    -303.00915118 Ry
     estimated scf accuracy    <       0.00000005 Ry

     iteration #  4     ecut=    40.00 Ry     beta=0.30
     Davidson diagonalization with overlap
     ethr =  1.07E-10,  avg # of iterations =  2.3

     total cpu time spent up to now is     5573.3 secs

     total energy              =    -303.00915122 Ry
     Harris-Foulkes estimate   =    -303.00915121 Ry
     estimated scf accuracy    <       0.00000003 Ry

     iteration #  5     ecut=    40.00 Ry     beta=0.30
     Davidson diagonalization with overlap
     ethr =  5.52E-11,  avg # of iterations =  1.5

     total cpu time spent up to now is     5618.5 secs

     End of self-consistent calculation

     Number of k-points >= 100: set verbosity='high' to print the bands.

!    total energy              =    -303.00915122 Ry
     Harris-Foulkes estimate   =    -303.00915122 Ry
     estimated scf accuracy    <          5.4E-09 Ry

     The total energy is the sum of the following terms:

     one-electron contribution =    -107.77563889 Ry
     hartree contribution      =      63.69337695 Ry
     xc contribution           =     -46.99565392 Ry
     ewald contribution        =    -211.93123536 Ry

     convergence has been achieved in   5 iterations

     Forces acting on atoms (Ry/au):

     atom    1 type  2   force =    -0.00046918   -0.00001343   -0.00133977
     atom    2 type  2   force =     0.00063301   -0.00015949   -0.00143733
     atom    3 type  2   force =    -0.00065898    0.00015470    0.00171273
     atom    4 type  2   force =     0.00072549   -0.00001422    0.00172138
     atom    5 type  1   force =    -0.00084212   -0.00004466   -0.00001094
     atom    6 type  1   force =     0.00083618   -0.00012907    0.00028843
     atom    7 type  1   force =    -0.00087792    0.00014141    0.00010607
     atom    8 type  1   force =     0.00088304    0.00004919   -0.00121986
     atom    9 type  1   force =    -0.00058101   -0.00001005    0.00025867
     atom   10 type  1   force =     0.00063505   -0.00007192    0.00027547
     atom   11 type  1   force =    -0.00085420    0.00008134   -0.00015275
     atom   12 type  1   force =     0.00057065    0.00001620   -0.00020211

     Total force =     0.004241     Total SCF correction =     0.000220


     entering subroutine stress ...

          total   stress  (Ry/bohr**3)                   (kbar)     P=   99.69
   0.00068144  -0.00000031   0.00000118        100.24     -0.05      0.17
  -0.00000031   0.00068385   0.00000047         -0.05    100.60      0.07
   0.00000118   0.00000047   0.00066778          0.17      0.07     98.23


     number of scf cycles    =  11
     number of bfgs steps    =  10

     enthalpy old            =    -302.4165134987 Ry
     enthalpy new            =    -302.4165691675 Ry

     CASE: enthalpy_new < enthalpy_old

     new trust radius        =       0.0127623009 bohr
     new conv_thr            =       0.0000000100 Ry

     new unit-cell volume =    871.56456 a.u.^3 (   129.15254 Ang^3 )

CELL_PARAMETERS (alat= 11.28030000)
   0.947903753   0.000075793   0.000156388
   0.000046131   0.579473887   0.000299253
   0.000165093   0.000565898   1.105451335

ATOMIC_POSITIONS (crystal)
Ca       0.243016113   0.248000224   0.110877131
Ca       0.256865672  -0.249862253   0.610943660
Ca       0.742955431   0.249844726   0.389198082
Ca      -0.242954237  -0.247984629  -0.110833367
H        0.351896245   0.250314574   0.428067893
H        0.148118876  -0.250960105   0.927976827
H        0.851910884   0.250985533   0.071784270
H       -0.351907474  -0.250328803  -0.427571612
H        0.974637598   0.250132875   0.682695809
H       -0.474587896  -0.250359787   1.182852217
H        1.474715982   0.250366024  -0.183052518
H       -0.974667194  -0.250148378  -0.682938392



     Writing output data file CaH2_ambient.save
     NEW-OLD atomic charge density approx. for the potential
     NEW k-points: (use verbosity='high' to print them)
     extrapolated charge   47.99295, renormalised to   48.00000

     total cpu time spent up to now is     5709.3 secs

     per-process dynamical memory:    23.0 Mb

     Self-consistent Calculation

     iteration #  1     ecut=    40.00 Ry     beta=0.30
     Davidson diagonalization with overlap
     ethr =  1.00E-06,  avg # of iterations =  4.0

     Threshold (ethr) on eigenvalues was too large:
     Diagonalizing with lowered threshold

     Davidson diagonalization with overlap
     ethr =  7.77E-08,  avg # of iterations =  1.2

     total cpu time spent up to now is     5849.6 secs

     total energy              =    -303.00911738 Ry
     Harris-Foulkes estimate   =    -303.01887100 Ry
     estimated scf accuracy    <       0.00003714 Ry

     iteration #  2     ecut=    40.00 Ry     beta=0.30
     Davidson diagonalization with overlap
     ethr =  7.74E-08,  avg # of iterations =  1.0

     total cpu time spent up to now is     5894.8 secs

     total energy              =    -303.00911271 Ry
     Harris-Foulkes estimate   =    -303.00911838 Ry
     estimated scf accuracy    <       0.00002214 Ry

     iteration #  3     ecut=    40.00 Ry     beta=0.30
     Davidson diagonalization with overlap
     ethr =  4.61E-08,  avg # of iterations =  1.9

     total cpu time spent up to now is     5939.4 secs

     total energy              =    -303.00911304 Ry
     Harris-Foulkes estimate   =    -303.00911354 Ry
     estimated scf accuracy    <       0.00000127 Ry

     iteration #  4     ecut=    40.00 Ry     beta=0.30
     Davidson diagonalization with overlap
     ethr =  2.65E-09,  avg # of iterations =  2.1

     total cpu time spent up to now is     5990.7 secs

     total energy              =    -303.00911327 Ry
     Harris-Foulkes estimate   =    -303.00911320 Ry
     estimated scf accuracy    <       0.00000010 Ry

     iteration #  5     ecut=    40.00 Ry     beta=0.30
     Davidson diagonalization with overlap
     ethr =  2.06E-10,  avg # of iterations =  1.9

     total cpu time spent up to now is     6036.1 secs

     total energy              =    -303.00911326 Ry
     Harris-Foulkes estimate   =    -303.00911328 Ry
     estimated scf accuracy    <       0.00000004 Ry

     iteration #  6     ecut=    40.00 Ry     beta=0.30
     Davidson diagonalization with overlap
     ethr =  7.51E-11,  avg # of iterations =  2.0

     total cpu time spent up to now is     6086.5 secs

     End of self-consistent calculation

     Number of k-points >= 100: set verbosity='high' to print the bands.

!    total energy              =    -303.00911327 Ry
     Harris-Foulkes estimate   =    -303.00911327 Ry
     estimated scf accuracy    <          5.4E-09 Ry

     The total energy is the sum of the following terms:

     one-electron contribution =    -107.74597612 Ry
     hartree contribution      =      63.68241618 Ry
     xc contribution           =     -46.99559612 Ry
     ewald contribution        =    -211.94995721 Ry

     convergence has been achieved in   6 iterations

     Forces acting on atoms (Ry/au):

     atom    1 type  2   force =    -0.00043481    0.00002997   -0.00034309
     atom    2 type  2   force =     0.00032418   -0.00008604   -0.00054294
     atom    3 type  2   force =    -0.00009252    0.00008791    0.00030961
     atom    4 type  2   force =     0.00037520   -0.00003659    0.00040047
     atom    5 type  1   force =    -0.00044651   -0.00008263   -0.00076367
     atom    6 type  1   force =     0.00041817   -0.00004447   -0.00055316
     atom    7 type  1   force =    -0.00041235    0.00003942    0.00101733
     atom    8 type  1   force =     0.00040602    0.00008478    0.00010467
     atom    9 type  1   force =    -0.00026559   -0.00003879    0.00010218
     atom   10 type  1   force =     0.00022613   -0.00003799    0.00006068
     atom   11 type  1   force =    -0.00035416    0.00004004    0.00017244
     atom   12 type  1   force =     0.00025624    0.00004439    0.00003550

     Total force =     0.002039     Total SCF correction =     0.000185


     entering subroutine stress ...

          total   stress  (Ry/bohr**3)                   (kbar)     P=   99.69
   0.00067672  -0.00000010  -0.00000077         99.55     -0.02     -0.11
  -0.00000010   0.00069159   0.00000001         -0.02    101.74      0.00
  -0.00000077   0.00000001   0.00066464         -0.11      0.00     97.77


     number of scf cycles    =  12
     number of bfgs steps    =  11

     enthalpy old            =    -302.4165691675 Ry
     enthalpy new            =    -302.4166356201 Ry

     CASE: enthalpy_new < enthalpy_old

     new trust radius        =       0.0041379060 bohr
     new conv_thr            =       0.0000000100 Ry

     new unit-cell volume =    871.43453 a.u.^3 (   129.13327 Ang^3 )

CELL_PARAMETERS (alat= 11.28030000)
   0.947857023   0.000058714   0.000221761
   0.000035927   0.579750050   0.000321683
   0.000238721   0.000607610   1.104814449

ATOMIC_POSITIONS (crystal)
Ca       0.242964836   0.247965277   0.110629240
Ca       0.256954299  -0.249927502   0.610681018
Ca       0.742862478   0.249908303   0.389518465
Ca      -0.242846667  -0.247960289  -0.110515890
H        0.351627987   0.250299551   0.428071279
H        0.148385758  -0.251027379   0.928043526
H        0.851635916   0.251057374   0.071801677
H       -0.351629721  -0.250312193  -0.427772582
H        0.974493144   0.250129441   0.682876862
H       -0.474431039  -0.250394447   1.183037453
H        1.474508348   0.250404421  -0.183261738
H       -0.974525341  -0.250142556  -0.683109309



     Writing output data file CaH2_ambient.save
     NEW-OLD atomic charge density approx. for the potential
     NEW k-points: (use verbosity='high' to print them)
     extrapolated charge   47.99403, renormalised to   48.00000

     total cpu time spent up to now is     6178.0 secs

     per-process dynamical memory:    23.0 Mb

     Self-consistent Calculation

     iteration #  1     ecut=    40.00 Ry     beta=0.30
     Davidson diagonalization with overlap
     ethr =  1.00E-06,  avg # of iterations =  3.0

     Threshold (ethr) on eigenvalues was too large:
     Diagonalizing with lowered threshold

     Davidson diagonalization with overlap
     ethr =  1.04E-08,  avg # of iterations =  3.0

     total cpu time spent up to now is     6312.7 secs

     total energy              =    -303.00904380 Ry
     Harris-Foulkes estimate   =    -303.01729859 Ry
     estimated scf accuracy    <       0.00000542 Ry

     iteration #  2     ecut=    40.00 Ry     beta=0.30
     Davidson diagonalization with overlap
     ethr =  1.13E-08,  avg # of iterations =  2.0

     total cpu time spent up to now is     6369.4 secs

     total energy              =    -303.00904413 Ry
     Harris-Foulkes estimate   =    -303.00904446 Ry
     estimated scf accuracy    <       0.00000279 Ry

     iteration #  3     ecut=    40.00 Ry     beta=0.30
     Davidson diagonalization with overlap
     ethr =  5.81E-09,  avg # of iterations =  1.0

     total cpu time spent up to now is     6412.6 secs

     total energy              =    -303.00904391 Ry
     Harris-Foulkes estimate   =    -303.00904418 Ry
     estimated scf accuracy    <       0.00000086 Ry

     iteration #  4     ecut=    40.00 Ry     beta=0.30
     Davidson diagonalization with overlap
     ethr =  1.80E-09,  avg # of iterations =  2.0

     total cpu time spent up to now is     6463.8 secs

     total energy              =    -303.00904400 Ry
     Harris-Foulkes estimate   =    -303.00904398 Ry
     estimated scf accuracy    <       0.00000003 Ry

     iteration #  5     ecut=    40.00 Ry     beta=0.30
     Davidson diagonalization with overlap
     ethr =  5.74E-11,  avg # of iterations =  2.0

     total cpu time spent up to now is     6512.2 secs

     total energy              =    -303.00904399 Ry
     Harris-Foulkes estimate   =    -303.00904400 Ry
     estimated scf accuracy    <       0.00000001 Ry

     iteration #  6     ecut=    40.00 Ry     beta=0.30
     Davidson diagonalization with overlap
     ethr =  2.22E-11,  avg # of iterations =  2.0

     total cpu time spent up to now is     6562.5 secs

     End of self-consistent calculation

     Number of k-points >= 100: set verbosity='high' to print the bands.

!    total energy              =    -303.00904399 Ry
     Harris-Foulkes estimate   =    -303.00904399 Ry
     estimated scf accuracy    <          2.3E-09 Ry

     The total energy is the sum of the following terms:

     one-electron contribution =    -107.72888955 Ry
     hartree contribution      =      63.67745414 Ry
     xc contribution           =     -46.99603908 Ry
     ewald contribution        =    -211.96156950 Ry

     convergence has been achieved in   6 iterations

     Forces acting on atoms (Ry/au):

     atom    1 type  2   force =    -0.00033741    0.00003231   -0.00001311
     atom    2 type  2   force =     0.00013185   -0.00004468   -0.00018618
[...]

     enthalpy old            =    -302.4166992439 Ry
     enthalpy new            =    -302.4167038395 Ry

     CASE: enthalpy_new < enthalpy_old

     new trust radius        =       0.0039884769 bohr
     new conv_thr            =       0.0000000100 Ry

     new unit-cell volume =    871.09942 a.u.^3 (   129.08362 Ang^3 )

CELL_PARAMETERS (alat= 11.28030000)
   0.946233650   0.000087040  -0.000202056
   0.000053029   0.581320328   0.000298975
  -0.000239655   0.000561689   1.103295930

ATOMIC_POSITIONS (crystal)
Ca       0.242721013   0.248006220   0.109581325
Ca       0.257090523  -0.250062660   0.609673619
Ca       0.743003472   0.250070250   0.390235115
Ca      -0.242801357  -0.247998319  -0.109698794
H        0.350811492   0.250014074   0.427036028
H        0.149184837  -0.251065231   0.927063128
H        0.850833837   0.251045759   0.073045144
H       -0.350823210  -0.250014611  -0.426964165
H        0.974729962   0.249956486   0.683927953
H       -0.474717896  -0.250466025   1.183849491
H        1.474686108   0.250467235  -0.183893078
H       -0.974718780  -0.249953179  -0.683855764



     Writing output data file CaH2_ambient.save
     NEW-OLD atomic charge density approx. for the potential
     NEW k-points: (use verbosity='high' to print them)
     extrapolated charge   47.99968, renormalised to   48.00000

     total cpu time spent up to now is     9036.2 secs

     per-process dynamical memory:    23.0 Mb

     Self-consistent Calculation

     iteration #  1     ecut=    40.00 Ry     beta=0.30
     Davidson diagonalization with overlap
     ethr =  1.00E-06,  avg # of iterations =  3.0

     Threshold (ethr) on eigenvalues was too large:
     Diagonalizing with lowered threshold

     Davidson diagonalization with overlap
     ethr =  6.64E-09,  avg # of iterations =  3.0

     total cpu time spent up to now is     9165.2 secs

     total energy              =    -303.00887108 Ry
     Harris-Foulkes estimate   =    -303.00930920 Ry
     estimated scf accuracy    <       0.00000356 Ry

     iteration #  2     ecut=    40.00 Ry     beta=0.30
     Davidson diagonalization with overlap
     ethr =  7.43E-09,  avg # of iterations =  1.0

     total cpu time spent up to now is     9208.5 secs

     total energy              =    -303.00887044 Ry
     Harris-Foulkes estimate   =    -303.00887110 Ry
     estimated scf accuracy    <       0.00000219 Ry

     iteration #  3     ecut=    40.00 Ry     beta=0.30
     Davidson diagonalization with overlap
     ethr =  4.56E-09,  avg # of iterations =  2.0

     total cpu time spent up to now is     9261.5 secs

     total energy              =    -303.00887068 Ry
     Harris-Foulkes estimate   =    -303.00887066 Ry
     estimated scf accuracy    <       0.00000003 Ry

     iteration #  4     ecut=    40.00 Ry     beta=0.30
     Davidson diagonalization with overlap
     ethr =  5.21E-11,  avg # of iterations =  2.0

     total cpu time spent up to now is     9323.2 secs

     total energy              =    -303.00887069 Ry
     Harris-Foulkes estimate   =    -303.00887069 Ry
     estimated scf accuracy    <       0.00000001 Ry

     iteration #  5     ecut=    40.00 Ry     beta=0.30
     Davidson diagonalization with overlap
     ethr =  2.78E-11,  avg # of iterations =  1.1

     total cpu time spent up to now is     9368.5 secs

     End of self-consistent calculation

     Number of k-points >= 100: set verbosity='high' to print the bands.

!    total energy              =    -303.00887069 Ry
     Harris-Foulkes estimate   =    -303.00887069 Ry
     estimated scf accuracy    <          4.6E-09 Ry

     The total energy is the sum of the following terms:

     one-electron contribution =    -107.67132271 Ry
     hartree contribution      =      63.65641558 Ry
     xc contribution           =     -46.99632297 Ry
     ewald contribution        =    -211.99764058 Ry

     convergence has been achieved in   5 iterations

     Forces acting on atoms (Ry/au):

     atom    1 type  2   force =     0.00017159    0.00007163   -0.00022774
     atom    2 type  2   force =    -0.00004408   -0.00002539   -0.00017865
     atom    3 type  2   force =    -0.00017700    0.00001766    0.00044708
     atom    4 type  2   force =     0.00003645   -0.00006936    0.00050953
     atom    5 type  1   force =    -0.00004334    0.00004031    0.00000901
     atom    6 type  1   force =     0.00003097    0.00001886   -0.00002856
     atom    7 type  1   force =    -0.00009276   -0.00000704   -0.00025836
     atom    8 type  1   force =     0.00009861   -0.00003958   -0.00025382
     atom    9 type  1   force =     0.00019978    0.00001069   -0.00004458
     atom   10 type  1   force =    -0.00013279    0.00000497   -0.00008962
     atom   11 type  1   force =     0.00014703   -0.00000810    0.00010612
     atom   12 type  1   force =    -0.00019446   -0.00001464    0.00000959

     Total force =     0.000956     Total SCF correction =     0.000191
     SCF correction compared to forces is large: reduce conv_thr to get better values


     entering subroutine stress ...

          total   stress  (Ry/bohr**3)                   (kbar)     P=   99.86
   0.00068190  -0.00000014   0.00000140        100.31     -0.02      0.21
  -0.00000014   0.00067661   0.00000011         -0.02     99.53      0.02
   0.00000140   0.00000011   0.00067803          0.21      0.02     99.74


     bfgs converged in  20 scf cycles and  19 bfgs steps
     (criteria: energy < 0.10E-03, force < 0.10E-02, cell < 0.50E+00)

     End of BFGS Geometry Optimization

     Final enthalpy =    -302.4167092378 Ry
Begin final coordinates
     new unit-cell volume =    871.09942 a.u.^3 (   129.08362 Ang^3 )

CELL_PARAMETERS (alat= 11.28030000)
   0.946233650   0.000087040  -0.000202056
   0.000053029   0.581320328   0.000298975
  -0.000239655   0.000561689   1.103295930

ATOMIC_POSITIONS (crystal)
Ca       0.242721013   0.248006220   0.109581325
Ca       0.257090523  -0.250062660   0.609673619
Ca       0.743003472   0.250070250   0.390235115
Ca      -0.242801357  -0.247998319  -0.109698794
H        0.350811492   0.250014074   0.427036028
H        0.149184837  -0.251065231   0.927063128
H        0.850833837   0.251045759   0.073045144
H       -0.350823210  -0.250014611  -0.426964165
H        0.974729962   0.249956486   0.683927953
H       -0.474717896  -0.250466025   1.183849491
H        1.474686108   0.250467235  -0.183893078
H       -0.974718780  -0.249953179  -0.683855764
End final coordinates



     A final scf calculation at the relaxed structure.
     The G-vectors are recalculated for the final unit cell
     Results may differ from those at the preceding step.

     G-vector sticks info
     --------------------
     sticks:   dense  smooth     PW     G-vecs:    dense   smooth      PW
     Sum         893     893    265                29791    29791    4717



     bravais-lattice index     =            8
     lattice parameter (alat)  =      11.2803  a.u.
     unit-cell volume          =     871.0994 (a.u.)^3
     number of atoms/cell      =           12
     number of atomic types    =            2
     number of electrons       =        48.00
     number of Kohn-Sham states=           24
     kinetic-energy cutoff     =      40.0000  Ry
     charge density cutoff     =     160.0000  Ry
     convergence threshold     =      1.0E-08
     mixing beta               =       0.3000
     number of iterations used =           16  local-TF  mixing
     Exchange-correlation      = PBE ( 1 4 3 4 0)
     EXX-fraction              =        0.00

     celldm(1)=  11.280300  celldm(2)=   0.604300  celldm(3)=   1.146000
     celldm(4)=   0.000000  celldm(5)=   0.000000  celldm(6)=   0.000000

     crystal axes: (cart. coord. in units of alat)
               a(1) = (   0.946234   0.000087  -0.000202 )  
               a(2) = (   0.000053   0.581320   0.000299 )  
               a(3) = (  -0.000240   0.000562   1.103296 )  

     reciprocal axes: (cart. coord. in units 2 pi/alat)
               b(1) = (  1.056821 -0.000097  0.000230 )  
               b(2) = ( -0.000158  1.720222 -0.000876 )  
               b(3) = (  0.000194 -0.000466  0.906375 )  


     PseudoPot. # 1 for H  read from file:
     /home/ilia/espresso/pseudo/H.pbe-sp-mt.ncpp
     MD5 check sum: 7a641936b52ccecd26bd1ad87cca5aed
     Pseudo is Norm-conserving, Zval =  1.0
     Generated by old ld1 code (numerical format)
     Using radial grid of 1076 points,  0 beta functions with: 

     PseudoPot. # 2 for Ca read from file:
     /home/ilia/espresso/pseudo/Ca.pbe-sp-mt_ion2.ncpp
     MD5 check sum: 4bcd670d05521f7b178fdf0a334578ab
     Pseudo is Norm-conserving, Zval = 10.0
     Generated by old ld1 code (numerical format)
     Using radial grid of 1153 points,  1 beta functions with: 
                l(1) =   1

     atomic species   valence    mass     pseudopotential
        H              1.00     1.00700     H ( 1.00)
        Ca            10.00    40.07800     Ca( 1.00)

     No symmetry found
          (note:  1 additional sym.ops. were found but ignored
           their fractional translations are incommensurate with FFT grid)


   Cartesian axes

     site n.     atom                  positions (alat units)
         1           Ca  tau(   1) = (   0.2296577   0.1442537   0.1209257  )
         2           Ca  tau(   2) = (   0.2431083  -0.1450017   0.6725237  )
         3           Ca  tau(   3) = (   0.7029746   0.1456548   0.4304695  )
         4           Ca  tau(   4) = (  -0.2297337  -0.1442492  -0.1210553  )
         5           H   tau(   5) = (   0.3318606   0.1456087   0.4711510  )
         6           H   tau(   6) = (   0.1409282  -0.1454156   1.0227198  )
         7           H   tau(   7) = (   0.8050834   0.1460531   0.0804935  )
         8           H   tau(   8) = (  -0.3318717  -0.1456089  -0.4710717  )
         9           H   tau(   9) = (   0.9221716   0.1457738   0.7544527  )
        10           H   tau(  10) = (  -0.4494910  -0.1449774   1.3061574  )
        11           H   tau(  11) = (   1.3954550   0.1456268  -0.2031116  )
        12           H   tau(  12) = (  -0.9221611  -0.1457718  -0.7543731  )

     number of k points=   108

     Number of k-points >= 100: set verbosity='high' to print them.

     Dense  grid:    29791 G-vectors     FFT dimensions: (  45,  27,  54)

     Largest allocated arrays     est. size (Mb)     dimensions
        Kohn-Sham Wavefunctions         1.37 Mb     (   3742,   24)
        NL pseudopotentials             0.69 Mb     (   3742,   12)
        Each V/rho on FFT grid          1.00 Mb     (  65610)
        Each G-vector array             0.23 Mb     (  29791)
        G-vector shells                 0.11 Mb     (  14896)
     Largest temporary arrays     est. size (Mb)     dimensions
        Auxiliary wavefunctions         5.48 Mb     (   3742,   96)
        Each subspace H/S matrix        0.14 Mb     (  96,  96)
        Each <psi_i|beta_j> matrix      0.00 Mb     (     12,   24)
        Arrays for rho mixing          16.02 Mb     (  65610,  16)

     Initial potential from superposition of free atoms

     starting charge   39.99992, renormalised to   48.00000
     Starting wfc are   24 randomized atomic wfcs

     Writing output data file CaH2_ambient.save

     total cpu time spent up to now is     9452.8 secs

     per-process dynamical memory:    20.1 Mb

     Self-consistent Calculation

     iteration #  1     ecut=    40.00 Ry     beta=0.30
     Davidson diagonalization with overlap
     ethr =  1.00E-06,  avg # of iterations =  5.0

     total cpu time spent up to now is     9581.0 secs

     total energy              =    -306.28341454 Ry
     Harris-Foulkes estimate   =    -308.55782975 Ry
     estimated scf accuracy    <      11.32109466 Ry

     iteration #  2     ecut=    40.00 Ry     beta=0.30
     Davidson diagonalization with overlap
     ethr =  1.00E-02,  avg # of iterations =  1.0

     total cpu time spent up to now is     9621.8 secs

     total energy              =    -301.76266487 Ry
     Harris-Foulkes estimate   =    -306.40840670 Ry
     estimated scf accuracy    <       6.82205938 Ry

     iteration #  3     ecut=    40.00 Ry     beta=0.30
     Davidson diagonalization with overlap
     ethr =  1.00E-02,  avg # of iterations =  2.0

     total cpu time spent up to now is     9685.4 secs

     total energy              =    -302.98816942 Ry
     Harris-Foulkes estimate   =    -303.00628528 Ry
     estimated scf accuracy    <       0.29314285 Ry

     iteration #  4     ecut=    40.00 Ry     beta=0.30
     Davidson diagonalization with overlap
     ethr =  6.11E-04,  avg # of iterations =  1.0

     total cpu time spent up to now is     9726.7 secs

     total energy              =    -302.98415307 Ry
     Harris-Foulkes estimate   =    -302.99185794 Ry
     estimated scf accuracy    <       0.19869979 Ry

     iteration #  5     ecut=    40.00 Ry     beta=0.30
     Davidson diagonalization with overlap
     ethr =  4.14E-04,  avg # of iterations =  2.0

     total cpu time spent up to now is     9774.8 secs

     total energy              =    -302.99915310 Ry
     Harris-Foulkes estimate   =    -302.99938295 Ry
     estimated scf accuracy    <       0.00647194 Ry

     iteration #  6     ecut=    40.00 Ry     beta=0.30
     Davidson diagonalization with overlap
     ethr =  1.35E-05,  avg # of iterations =  1.9

     total cpu time spent up to now is     9817.7 secs

     total energy              =    -302.99988108 Ry
     Harris-Foulkes estimate   =    -302.99940026 Ry
     estimated scf accuracy    <       0.00370995 Ry

     iteration #  7     ecut=    40.00 Ry     beta=0.30
     Davidson diagonalization with overlap
     ethr =  7.73E-06,  avg # of iterations =  2.0

     total cpu time spent up to now is     9865.0 secs

     total energy              =    -302.99953588 Ry
     Harris-Foulkes estimate   =    -303.00012261 Ry
     estimated scf accuracy    <       0.00093869 Ry

     iteration #  8     ecut=    40.00 Ry     beta=0.30
     Davidson diagonalization with overlap
     ethr =  1.96E-06,  avg # of iterations =  2.0

     total cpu time spent up to now is     9928.1 secs

     total energy              =    -302.99972169 Ry
     Harris-Foulkes estimate   =    -302.99972420 Ry
     estimated scf accuracy    <       0.00002196 Ry

     iteration #  9     ecut=    40.00 Ry     beta=0.30
     Davidson diagonalization with overlap
     ethr =  4.57E-08,  avg # of iterations =  2.0

     total cpu time spent up to now is     9978.1 secs

     total energy              =    -302.99972338 Ry
     Harris-Foulkes estimate   =    -302.99972514 Ry
     estimated scf accuracy    <       0.00001450 Ry

     iteration # 10     ecut=    40.00 Ry     beta=0.30
     Davidson diagonalization with overlap
     ethr =  3.02E-08,  avg # of iterations =  1.0

     total cpu time spent up to now is    10019.2 secs

     total energy              =    -302.99972401 Ry
     Harris-Foulkes estimate   =    -302.99972405 Ry
     estimated scf accuracy    <       0.00000040 Ry

     iteration # 11     ecut=    40.00 Ry     beta=0.30
     Davidson diagonalization with overlap
     ethr =  8.25E-10,  avg # of iterations =  2.0

     total cpu time spent up to now is    10063.5 secs

     total energy              =    -302.99972402 Ry
     Harris-Foulkes estimate   =    -302.99972404 Ry
     estimated scf accuracy    <       0.00000022 Ry

     iteration # 12     ecut=    40.00 Ry     beta=0.30
     Davidson diagonalization with overlap
     ethr =  4.59E-10,  avg # of iterations =  2.0

     total cpu time spent up to now is    10111.5 secs

     total energy              =    -302.99972399 Ry
     Harris-Foulkes estimate   =    -302.99972404 Ry
     estimated scf accuracy    <       0.00000010 Ry

     iteration # 13     ecut=    40.00 Ry     beta=0.30
     Davidson diagonalization with overlap
     ethr =  2.17E-10,  avg # of iterations =  2.0

     total cpu time spent up to now is    10167.9 secs

     End of self-consistent calculation

     Number of k-points >= 100: set verbosity='high' to print the bands.

!    total energy              =    -302.99972400 Ry
     Harris-Foulkes estimate   =    -302.99972400 Ry
     estimated scf accuracy    <          2.1E-09 Ry

     The total energy is the sum of the following terms:

     one-electron contribution =    -107.65833525 Ry
     hartree contribution      =      63.64735453 Ry
     xc contribution           =     -46.99110268 Ry
     ewald contribution        =    -211.99764060 Ry

     convergence has been achieved in  13 iterations

     Forces acting on atoms (Ry/au):

     atom    1 type  2   force =     0.00013642    0.00002422   -0.00032532
     atom    2 type  2   force =    -0.00003364    0.00000361   -0.00031533
     atom    3 type  2   force =    -0.00018820   -0.00001121    0.00057563
     atom    4 type  2   force =     0.00007068   -0.00002208    0.00061687
     atom    5 type  1   force =    -0.00002555    0.00004033    0.00001305
     atom    6 type  1   force =     0.00001321    0.00001836   -0.00002783
     atom    7 type  1   force =    -0.00007454   -0.00000652   -0.00025722
     atom    8 type  1   force =     0.00008133   -0.00003957   -0.00026068
     atom    9 type  1   force =     0.00020540    0.00001083   -0.00005894
     atom   10 type  1   force =    -0.00013768    0.00000600   -0.00009304
     atom   11 type  1   force =     0.00015207   -0.00000914    0.00010998
     atom   12 type  1   force =    -0.00019952   -0.00001482    0.00002284

     Total force =     0.001131     Total SCF correction =     0.000069


     entering subroutine stress ...

          total   stress  (Ry/bohr**3)                   (kbar)     P=   91.64
   0.00062360  -0.00000007   0.00000130         91.74     -0.01      0.19
  -0.00000007   0.00062212   0.00000028         -0.01     91.52      0.04
   0.00000130   0.00000028   0.00062309          0.19      0.04     91.66


     Writing output data file CaH2_ambient.save

     init_run     :     80.49s CPU     84.42s WALL (       2 calls)
     electrons    :   8028.00s CPU   8295.48s WALL (      21 calls)
     update_pot   :    751.56s CPU    766.84s WALL (      19 calls)
     forces       :    312.10s CPU    314.87s WALL (      21 calls)
     stress       :    723.84s CPU    728.33s WALL (      21 calls)

     Called by init_run:
     wfcinit      :     40.54s CPU     43.08s WALL (       2 calls)
     potinit      :     18.94s CPU     20.09s WALL (       2 calls)

     Called by electrons:
     c_bands      :   6896.06s CPU   7137.33s WALL (     147 calls)
     sum_band     :   1102.40s CPU   1126.97s WALL (     147 calls)
     v_of_rho     :     16.65s CPU     16.95s WALL (     154 calls)
     mix_rho      :     14.34s CPU     15.51s WALL (     147 calls)

     Called by c_bands:
     init_us_2    :    122.25s CPU    127.66s WALL (   36504 calls)
     cegterg      :   6834.88s CPU   6965.79s WALL (   15876 calls)

     Called by *egterg:
     h_psi        :   4464.86s CPU   4488.25s WALL (   48313 calls)
     g_psi        :     39.01s CPU     39.37s WALL (   32221 calls)
     cdiaghg      :    104.82s CPU    105.50s WALL (   44533 calls)

     Called by h_psi:
     add_vuspsi   :    144.44s CPU    144.94s WALL (   48313 calls)

     General routines
     calbec       :    159.11s CPU    160.28s WALL (   52849 calls)
     fft          :      4.87s CPU      4.90s WALL (    1888 calls)
     ffts         :      5.80s CPU      5.84s WALL (    2282 calls)
     fftw         :   4200.29s CPU   4212.24s WALL ( 2324966 calls)
     davcio       :      5.11s CPU    132.74s WALL (   52380 calls)


     PWSCF        :     2h45m CPU        2h49m WALL


   This run was terminated on:  22: 4:56   3Jun2014            

=------------------------------------------------------------------------------=
   JOB DONE.
=------------------------------------------------------------------------------=
