
     Program PWSCF v.5.0.2 (svn rev. 9392) starts on  4Jun2014 at  8:20:49 

     This program is part of the open-source Quantum ESPRESSO suite
     for quantum simulation of materials; please cite
         "P. Giannozzi et al., J. Phys.:Condens. Matter 21 395502 (2009);
          URL http://www.quantum-espresso.org", 
     in publications or presentations arising from this work. More details at
     http://www.quantum-espresso.org/quote.php

     Serial version

     Current dimensions of program PWSCF are:
     Max number of different atomic species (ntypx) = 10
     Max number of k-points (npk) =  40000
     Max angular momentum in pseudopotentials (lmaxx) =  3
     Waiting for input...
     Reading input from standard input

     G-vector sticks info
     --------------------
     sticks:   dense  smooth     PW     G-vecs:    dense   smooth      PW
     Sum         983     983    291                34015    34015    5283



     bravais-lattice index     =            8
     lattice parameter (alat)  =      11.2803  a.u.
     unit-cell volume          =     994.0292 (a.u.)^3
     number of atoms/cell      =           12
     number of atomic types    =            2
     number of electrons       =        48.00
     number of Kohn-Sham states=           24
     kinetic-energy cutoff     =      40.0000  Ry
     charge density cutoff     =     160.0000  Ry
     convergence threshold     =      1.0E-06
     mixing beta               =       0.3000
     number of iterations used =           16  local-TF  mixing
     Exchange-correlation      = PBE ( 1 4 3 4 0)
     EXX-fraction              =        0.00
     nstep                     =           50


     celldm(1)=  11.280300  celldm(2)=   0.604300  celldm(3)=   1.146000
     celldm(4)=   0.000000  celldm(5)=   0.000000  celldm(6)=   0.000000

     crystal axes: (cart. coord. in units of alat)
               a(1) = (   1.000000   0.000000   0.000000 )  
               a(2) = (   0.000000   0.604300   0.000000 )  
               a(3) = (   0.000000   0.000000   1.146000 )  

     reciprocal axes: (cart. coord. in units 2 pi/alat)
               b(1) = (  1.000000  0.000000  0.000000 )  
               b(2) = (  0.000000  1.654807  0.000000 )  
               b(3) = (  0.000000  0.000000  0.872600 )  


     PseudoPot. # 1 for H  read from file:
     /home/ilia/espresso/pseudo/H.pbe-sp-mt.ncpp
     MD5 check sum: 7a641936b52ccecd26bd1ad87cca5aed
     Pseudo is Norm-conserving, Zval =  1.0
     Generated by old ld1 code (numerical format)
     Using radial grid of 1076 points,  0 beta functions with: 

     PseudoPot. # 2 for Ca read from file:
     /home/ilia/espresso/pseudo/Ca.pbe-sp-mt_ion2.ncpp
     MD5 check sum: 4bcd670d05521f7b178fdf0a334578ab
     Pseudo is Norm-conserving, Zval = 10.0
     Generated by old ld1 code (numerical format)
     Using radial grid of 1153 points,  1 beta functions with: 
                l(1) =   1

     atomic species   valence    mass     pseudopotential
        H              1.00     1.00700     H ( 1.00)
        Ca            10.00    40.07800     Ca( 1.00)

     No symmetry found
          (note:  1 additional sym.ops. were found but ignored
           their fractional translations are incommensurate with FFT grid)


   Cartesian axes

     site n.     atom                  positions (alat units)
         1           Ca  tau(   1) = (   0.2400000   0.1510750   0.1259454  )
         2           Ca  tau(   2) = (   0.2600000  -0.1510750   0.6989454  )
         3           Ca  tau(   3) = (   0.7400000   0.1510750   0.4470546  )
         4           Ca  tau(   4) = (  -0.2400000  -0.1510750  -0.1259454  )
         5           H   tau(   5) = (   0.3557000   0.1510750   0.4887690  )
         6           H   tau(   6) = (   0.1443000  -0.1510750   1.0617690  )
         7           H   tau(   7) = (   0.8557000   0.1510750   0.0842310  )
         8           H   tau(   8) = (  -0.3557000  -0.1510750  -0.4922070  )
         9           H   tau(   9) = (   0.9754000   0.1510750   0.7752690  )
        10           H   tau(  10) = (  -0.4754000  -0.1510750   1.3482690  )
        11           H   tau(  11) = (   1.4754000   0.1510750  -0.1988310  )
        12           H   tau(  12) = (  -0.9754000  -0.1510750  -0.7752690  )

     number of k points=   108

     Number of k-points >= 100: set verbosity='high' to print them.

     Dense  grid:    34015 G-vectors     FFT dimensions: (  45,  27,  54)

     Largest allocated arrays     est. size (Mb)     dimensions
        Kohn-Sham Wavefunctions         1.56 Mb     (   4268,   24)
        NL pseudopotentials             0.78 Mb     (   4268,   12)
        Each V/rho on FFT grid          1.00 Mb     (  65610)
        Each G-vector array             0.26 Mb     (  34015)
        G-vector shells                 0.26 Mb     (  34015)
     Largest temporary arrays     est. size (Mb)     dimensions
        Auxiliary wavefunctions         6.25 Mb     (   4268,   96)
        Each subspace H/S matrix        0.14 Mb     (  96,  96)
        Each <psi_i|beta_j> matrix      0.00 Mb     (     12,   24)
        Arrays for rho mixing          16.02 Mb     (  65610,  16)

     Initial potential from superposition of free atoms

     starting charge   39.99992, renormalised to   48.00000
     Starting wfc are   24 randomized atomic wfcs

     total cpu time spent up to now is       58.2 secs

     per-process dynamical memory:    17.1 Mb

     Self-consistent Calculation

     iteration #  1     ecut=    40.00 Ry     beta=0.30
     Davidson diagonalization with overlap
     ethr =  1.00E-02,  avg # of iterations =  2.0

     total cpu time spent up to now is      170.5 secs

     total energy              =    -306.47248621 Ry
     Harris-Foulkes estimate   =    -308.75457630 Ry
     estimated scf accuracy    <      11.56521712 Ry

     iteration #  2     ecut=    40.00 Ry     beta=0.30
     Davidson diagonalization with overlap
     ethr =  1.00E-02,  avg # of iterations =  1.0

     total cpu time spent up to now is      244.4 secs

     total energy              =    -301.79593211 Ry
     Harris-Foulkes estimate   =    -306.59728518 Ry
     estimated scf accuracy    <       7.06306850 Ry

     iteration #  3     ecut=    40.00 Ry     beta=0.30
     Davidson diagonalization with overlap
     ethr =  1.00E-02,  avg # of iterations =  2.0

     total cpu time spent up to now is      357.7 secs

     total energy              =    -303.04582892 Ry
     Harris-Foulkes estimate   =    -303.07523321 Ry
     estimated scf accuracy    <       0.35070893 Ry

     iteration #  4     ecut=    40.00 Ry     beta=0.30
     Davidson diagonalization with overlap
     ethr =  7.31E-04,  avg # of iterations =  1.0

     total cpu time spent up to now is      427.9 secs

     total energy              =    -303.03333580 Ry
     Harris-Foulkes estimate   =    -303.05071658 Ry
     estimated scf accuracy    <       0.22564052 Ry

     iteration #  5     ecut=    40.00 Ry     beta=0.30
     Davidson diagonalization with overlap
     ethr =  4.70E-04,  avg # of iterations =  2.0

     total cpu time spent up to now is      513.4 secs

     total energy              =    -303.05082388 Ry
     Harris-Foulkes estimate   =    -303.05148951 Ry
     estimated scf accuracy    <       0.00813008 Ry

     iteration #  6     ecut=    40.00 Ry     beta=0.30
     Davidson diagonalization with overlap
     ethr =  1.69E-05,  avg # of iterations =  2.0

     total cpu time spent up to now is      584.8 secs

     total energy              =    -303.05162876 Ry
     Harris-Foulkes estimate   =    -303.05116958 Ry
     estimated scf accuracy    <       0.00439837 Ry

     iteration #  7     ecut=    40.00 Ry     beta=0.30
     Davidson diagonalization with overlap
     ethr =  9.16E-06,  avg # of iterations =  2.0

     total cpu time spent up to now is      666.1 secs

     total energy              =    -303.05126173 Ry
     Harris-Foulkes estimate   =    -303.05203494 Ry
     estimated scf accuracy    <       0.00122909 Ry

     iteration #  8     ecut=    40.00 Ry     beta=0.30
     Davidson diagonalization with overlap
     ethr =  2.56E-06,  avg # of iterations =  2.0

     total cpu time spent up to now is      769.2 secs

     total energy              =    -303.05151233 Ry
     Harris-Foulkes estimate   =    -303.05150480 Ry
     estimated scf accuracy    <       0.00002034 Ry

     iteration #  9     ecut=    40.00 Ry     beta=0.30
     Davidson diagonalization with overlap
     ethr =  4.24E-08,  avg # of iterations =  2.5

     total cpu time spent up to now is      849.6 secs

     total energy              =    -303.05150804 Ry
     Harris-Foulkes estimate   =    -303.05151586 Ry
     estimated scf accuracy    <       0.00002959 Ry

     iteration # 10     ecut=    40.00 Ry     beta=0.30
     Davidson diagonalization with overlap
     ethr =  4.24E-08,  avg # of iterations =  2.0

     total cpu time spent up to now is      938.6 secs

     End of self-consistent calculation

     Number of k-points >= 100: set verbosity='high' to print the bands.

!    total energy              =    -303.05150952 Ry
     Harris-Foulkes estimate   =    -303.05150979 Ry
     estimated scf accuracy    <       0.00000075 Ry

     The total energy is the sum of the following terms:

     one-electron contribution =    -121.74451130 Ry
     hartree contribution      =      68.07615896 Ry
     xc contribution           =     -46.61644453 Ry
     ewald contribution        =    -202.76671266 Ry

     convergence has been achieved in  10 iterations

     Forces acting on atoms (Ry/au):

     atom    1 type  2   force =    -0.00033836   -0.00114419   -0.00043883
     atom    2 type  2   force =    -0.00161341    0.00070798   -0.00142378
     atom    3 type  2   force =     0.00197308   -0.00070823   -0.00060445
     atom    4 type  2   force =    -0.00015704    0.00114508    0.00071155
     atom    5 type  1   force =    -0.00046958    0.00000139    0.00084641
     atom    6 type  1   force =     0.00029097   -0.00000126    0.00024858
     atom    7 type  1   force =    -0.00023970    0.00000111   -0.00049480
     atom    8 type  1   force =     0.00007765   -0.00000159    0.00326895
     atom    9 type  1   force =    -0.00011854    0.00000033    0.00001349
     atom   10 type  1   force =    -0.00009196   -0.00000187   -0.00002380
     atom   11 type  1   force =     0.00055668    0.00000174   -0.00216227
     atom   12 type  1   force =     0.00013020   -0.00000048    0.00005894

     Total force =     0.005519     Total SCF correction =     0.000252


     entering subroutine stress ...

          total   stress  (Ry/bohr**3)                   (kbar)     P=    9.75
   0.00006905   0.00000003  -0.00000125         10.16      0.00     -0.18
   0.00000003   0.00006412   0.00000001          0.00      9.43      0.00
  -0.00000125   0.00000001   0.00006562         -0.18      0.00      9.65


     BFGS Geometry Optimization

     number of scf cycles    =   1
     number of bfgs steps    =   0

     enthalpy new            =    -300.3485996857 Ry

     new trust radius        =       0.4185407641 bohr
     new conv_thr            =       0.0000010000 Ry

     new unit-cell volume =    809.07831 a.u.^3 (   119.89303 Ang^3 )

CELL_PARAMETERS (alat= 11.28030000)
   0.933747738   0.000000735  -0.000031358
   0.000000444   0.564189250   0.000000214
  -0.000035937   0.000000406   1.069976504

ATOMIC_POSITIONS (crystal)
Ca       0.239970004   0.249832148   0.109866054
Ca       0.259856971  -0.249896140   0.609789862
Ca       0.740174914   0.249896103   0.390053242
Ca      -0.240013921  -0.249832018  -0.109844957
H        0.355658372   0.250000203   0.426565475
H        0.144325795  -0.250000185   0.926519229
H        0.855678751   0.250000162   0.073461724
H       -0.355693117  -0.250000233  -0.429247127
H        0.975389492   0.250000049   0.676501044
H       -0.475408152  -0.250000274   1.176498159
H        1.475449350   0.250000255  -0.173667265
H       -0.975388458  -0.250000070  -0.676495440



     Writing output data file CaH2_ambient.save
     NEW-OLD atomic charge density approx. for the potential
     NEW k-points: (use verbosity='high' to print them)
     extrapolated charge   38.85623, renormalised to   48.00000

     total cpu time spent up to now is     1035.4 secs

     per-process dynamical memory:    23.0 Mb

     Self-consistent Calculation

     iteration #  1     ecut=    40.00 Ry     beta=0.30
     Davidson diagonalization with overlap
     ethr =  1.00E-06,  avg # of iterations =  7.8

     total cpu time spent up to now is     1275.6 secs

     total energy              =    -302.00428161 Ry
     Harris-Foulkes estimate   =    -313.88281236 Ry
     estimated scf accuracy    <       3.14921894 Ry

     iteration #  2     ecut=    40.00 Ry     beta=0.30
     Davidson diagonalization with overlap
     ethr =  6.56E-03,  avg # of iterations =  2.0

     total cpu time spent up to now is     1394.8 secs

     total energy              =    -303.04247322 Ry
     Harris-Foulkes estimate   =    -303.17714894 Ry
     estimated scf accuracy    <       0.43572057 Ry

     iteration #  3     ecut=    40.00 Ry     beta=0.30
     Davidson diagonalization with overlap
     ethr =  9.08E-04,  avg # of iterations =  1.0

     total cpu time spent up to now is     1468.4 secs

     total energy              =    -302.89670920 Ry
     Harris-Foulkes estimate   =    -303.05417571 Ry
     estimated scf accuracy    <       0.20482664 Ry

     iteration #  4     ecut=    40.00 Ry     beta=0.30
     Davidson diagonalization with overlap
     ethr =  4.27E-04,  avg # of iterations =  2.0

     total cpu time spent up to now is     1576.9 secs

     total energy              =    -302.94905162 Ry
     Harris-Foulkes estimate   =    -302.95223739 Ry
     estimated scf accuracy    <       0.01715945 Ry

     iteration #  5     ecut=    40.00 Ry     beta=0.30
     Davidson diagonalization with overlap
     ethr =  3.57E-05,  avg # of iterations =  1.0

     total cpu time spent up to now is     1643.9 secs

     total energy              =    -302.94957223 Ry
     Harris-Foulkes estimate   =    -302.94970771 Ry
     estimated scf accuracy    <       0.00041162 Ry

     iteration #  6     ecut=    40.00 Ry     beta=0.30
     Davidson diagonalization with overlap
     ethr =  8.58E-07,  avg # of iterations =  2.4

     total cpu time spent up to now is     1752.5 secs

     total energy              =    -302.94965113 Ry
     Harris-Foulkes estimate   =    -302.94982532 Ry
     estimated scf accuracy    <       0.00038829 Ry

     iteration #  7     ecut=    40.00 Ry     beta=0.30
     Davidson diagonalization with overlap
     ethr =  8.09E-07,  avg # of iterations =  2.0

     total cpu time spent up to now is     1840.7 secs

     total energy              =    -302.94968944 Ry
     Harris-Foulkes estimate   =    -302.94969176 Ry
     estimated scf accuracy    <       0.00003356 Ry

     iteration #  8     ecut=    40.00 Ry     beta=0.30
     Davidson diagonalization with overlap
     ethr =  6.99E-08,  avg # of iterations =  2.0

     total cpu time spent up to now is     1939.5 secs

     End of self-consistent calculation

     Number of k-points >= 100: set verbosity='high' to print the bands.

!    total energy              =    -302.94969495 Ry
     Harris-Foulkes estimate   =    -302.94969452 Ry
     estimated scf accuracy    <       0.00000091 Ry

     The total energy is the sum of the following terms:

     one-electron contribution =     -99.90435030 Ry
     hartree contribution      =      61.37389728 Ry
     xc contribution           =     -47.24713647 Ry
     ewald contribution        =    -217.17210546 Ry

     convergence has been achieved in   8 iterations

     Forces acting on atoms (Ry/au):

     atom    1 type  2   force =     0.00401268   -0.00063517    0.00654614
     atom    2 type  2   force =    -0.00489376    0.00029575    0.00581317
     atom    3 type  2   force =     0.00568740   -0.00029397   -0.00739465
     atom    4 type  2   force =    -0.00493943    0.00064053   -0.00697058
     atom    5 type  1   force =    -0.00246354    0.00005699    0.00002641
     atom    6 type  1   force =     0.00240363   -0.00009299   -0.00040025
     atom    7 type  1   force =    -0.00233741    0.00009174    0.00015179
     atom    8 type  1   force =     0.00211792   -0.00006054    0.00491011
     atom    9 type  1   force =     0.00041932    0.00002325    0.00724972
     atom   10 type  1   force =    -0.00058021   -0.00003213    0.00726050
     atom   11 type  1   force =     0.00100712    0.00003116   -0.00990749
     atom   12 type  1   force =    -0.00043372   -0.00002462   -0.00728486

     Total force =     0.024125     Total SCF correction =     0.001309


     entering subroutine stress ...

          total   stress  (Ry/bohr**3)                   (kbar)     P=  172.47
   0.00111844   0.00000025  -0.00000553        164.53      0.04     -0.81
   0.00000025   0.00119609   0.00000025          0.04    175.95      0.04
  -0.00000553   0.00000025   0.00120285         -0.81      0.04    176.94


     number of scf cycles    =   2
     number of bfgs steps    =   1

     enthalpy old            =    -300.3485996857 Ry
     enthalpy new            =    -300.7496935512 Ry

     CASE: enthalpy_new < enthalpy_old

     new trust radius        =       0.4340002034 bohr
     new conv_thr            =       0.0000000991 Ry

     new unit-cell volume =    642.97223 a.u.^3 (    95.27865 Ang^3 )

CELL_PARAMETERS (alat= 11.28030000)
   0.862513056   0.000011977  -0.000279027
   0.000007240   0.523216127   0.000006807
  -0.000319935   0.000012910   0.992621119

ATOMIC_POSITIONS (crystal)
Ca       0.240645362   0.249654486   0.110827429
Ca       0.259032455  -0.249813303   0.610643282
Ca       0.741133187   0.249813763   0.388966829
Ca      -0.240845486  -0.249652865  -0.110868579
H        0.355243457   0.250016078   0.426569654
H        0.144730557  -0.250026088   0.926460510
H        0.855285158   0.250025716   0.073483864
H       -0.355336566  -0.250017096  -0.428524795
H        0.975459996   0.250006527   0.677565936
H       -0.475505907  -0.250009224   1.177564627
H        1.475619169   0.250008933  -0.175123287
H       -0.975461381  -0.250006929  -0.677565470



     Writing output data file CaH2_ambient.save
     NEW-OLD atomic charge density approx. for the potential
     NEW k-points: (use verbosity='high' to print them)
     extrapolated charge   37.66638, renormalised to   48.00000

     total cpu time spent up to now is     2036.8 secs

     per-process dynamical memory:    23.0 Mb

     Self-consistent Calculation

     iteration #  1     ecut=    40.00 Ry     beta=0.30
     Davidson diagonalization with overlap
     ethr =  1.00E-06,  avg # of iterations =  7.4

     total cpu time spent up to now is     2278.5 secs

     total energy              =    -301.64992557 Ry
     Harris-Foulkes estimate   =    -311.64996168 Ry
     estimated scf accuracy    <       3.95670319 Ry

     iteration #  2     ecut=    40.00 Ry     beta=0.30
     Davidson diagonalization with overlap
     ethr =  8.24E-03,  avg # of iterations =  2.0

     total cpu time spent up to now is     2393.9 secs

     total energy              =    -302.71668037 Ry
     Harris-Foulkes estimate   =    -302.93007909 Ry
     estimated scf accuracy    <       0.63650442 Ry

     iteration #  3     ecut=    40.00 Ry     beta=0.30
     Davidson diagonalization with overlap
     ethr =  1.33E-03,  avg # of iterations =  1.0

     total cpu time spent up to now is     2465.5 secs

     total energy              =    -302.52935310 Ry
     Harris-Foulkes estimate   =    -302.73473950 Ry
     estimated scf accuracy    <       0.27109182 Ry

     iteration #  4     ecut=    40.00 Ry     beta=0.30
     Davidson diagonalization with overlap
     ethr =  5.65E-04,  avg # of iterations =  2.0

     total cpu time spent up to now is     2580.7 secs

     total energy              =    -302.59624227 Ry
     Harris-Foulkes estimate   =    -302.59956738 Ry
     estimated scf accuracy    <       0.01815612 Ry

     iteration #  5     ecut=    40.00 Ry     beta=0.30
     Davidson diagonalization with overlap
     ethr =  3.78E-05,  avg # of iterations =  1.0

     total cpu time spent up to now is     2647.7 secs

     total energy              =    -302.59752538 Ry
     Harris-Foulkes estimate   =    -302.59741855 Ry
     estimated scf accuracy    <       0.00019220 Ry

     iteration #  6     ecut=    40.00 Ry     beta=0.30
     Davidson diagonalization with overlap
     ethr =  4.00E-07,  avg # of iterations =  2.9

     total cpu time spent up to now is     2761.7 secs

     total energy              =    -302.59738865 Ry
     Harris-Foulkes estimate   =    -302.59759373 Ry
     estimated scf accuracy    <       0.00034282 Ry

     iteration #  7     ecut=    40.00 Ry     beta=0.30
     Davidson diagonalization with overlap
     ethr =  4.00E-07,  avg # of iterations =  2.0

     total cpu time spent up to now is     2869.7 secs

     total energy              =    -302.59742541 Ry
     Harris-Foulkes estimate   =    -302.59759923 Ry
     estimated scf accuracy    <       0.00025782 Ry

     iteration #  8     ecut=    40.00 Ry     beta=0.30
     Davidson diagonalization with overlap
     ethr =  4.00E-07,  avg # of iterations =  2.0

     total cpu time spent up to now is     2974.7 secs

     total energy              =    -302.59748128 Ry
     Harris-Foulkes estimate   =    -302.59748187 Ry
     estimated scf accuracy    <       0.00000319 Ry

     iteration #  9     ecut=    40.00 Ry     beta=0.30
     Davidson diagonalization with overlap
     ethr =  6.66E-09,  avg # of iterations =  1.1

     total cpu time spent up to now is     3034.6 secs

     total energy              =    -302.59748073 Ry
     Harris-Foulkes estimate   =    -302.59748143 Ry
     estimated scf accuracy    <       0.00000146 Ry

     iteration # 10     ecut=    40.00 Ry     beta=0.30
     Davidson diagonalization with overlap
     ethr =  3.04E-09,  avg # of iterations =  2.0

     total cpu time spent up to now is     3132.1 secs

     End of self-consistent calculation

     Number of k-points >= 100: set verbosity='high' to print the bands.

!    total energy              =    -302.59748092 Ry
     Harris-Foulkes estimate   =    -302.59748093 Ry
     estimated scf accuracy    <       0.00000003 Ry

     The total energy is the sum of the following terms:

     one-electron contribution =     -73.86595212 Ry
     hartree contribution      =      53.83277023 Ry
     xc contribution           =     -48.07661193 Ry
     ewald contribution        =    -234.48768710 Ry

     convergence has been achieved in  10 iterations

     Forces acting on atoms (Ry/au):

     atom    1 type  2   force =     0.01094739   -0.00022689    0.01433392
     atom    2 type  2   force =    -0.01067286   -0.00010358    0.01455981
     atom    3 type  2   force =     0.01129827    0.00011334   -0.01454630
     atom    4 type  2   force =    -0.01170428    0.00024585   -0.01525975
     atom    5 type  1   force =    -0.00614450    0.00016434    0.00094157
     atom    6 type  1   force =     0.00650538   -0.00028722    0.00060808
     atom    7 type  1   force =    -0.00650977    0.00028085   -0.00118913
     atom    8 type  1   force =     0.00621750   -0.00017355    0.00373568
     atom    9 type  1   force =     0.00028496    0.00010664    0.01793240
     atom   10 type  1   force =    -0.00027704   -0.00014507    0.01785998
     atom   11 type  1   force =     0.00035315    0.00013979   -0.02082170
     atom   12 type  1   force =    -0.00029820   -0.00011450   -0.01815456

     Total force =     0.054245     Total SCF correction =     0.000127


     entering subroutine stress ...

          total   stress  (Ry/bohr**3)                   (kbar)     P=  503.01
   0.00324115   0.00000044  -0.00000749        476.79      0.07     -1.10
   0.00000044   0.00347455   0.00000076          0.07    511.12      0.11
  -0.00000749   0.00000076   0.00354242         -1.10      0.11    521.11


     number of scf cycles    =   3
     number of bfgs steps    =   2

     enthalpy old            =    -300.7496935512 Ry
     enthalpy new            =    -300.8491460811 Ry

     CASE: enthalpy_new < enthalpy_old

     new trust radius        =       0.1176196057 bohr
     new conv_thr            =       0.0000002082 Ry

     new unit-cell volume =    685.38116 a.u.^3 (   101.56301 Ang^3 )

CELL_PARAMETERS (alat= 11.28030000)
   0.879054996   0.000016352  -0.000343839
   0.000009895   0.534826934   0.000012017
  -0.000395211   0.000022798   1.015642727

ATOMIC_POSITIONS (crystal)
Ca       0.241161084   0.249657117   0.111393961
Ca       0.258551092  -0.249833730   0.611235529
Ca       0.741631225   0.249835023   0.388406304
Ca      -0.241382162  -0.249653951  -0.111471616
H        0.354958494   0.250029073   0.426615221
H        0.145036849  -0.250049051   0.926498029
H        0.854977132   0.250048138   0.073422976
H       -0.355039834  -0.250030800  -0.428440318
H        0.975465886   0.250015504   0.678293770
H       -0.475508367  -0.250021367   1.178288722
H        1.475616270   0.250020623  -0.175939184
H       -0.975467671  -0.250016579  -0.678303394



     Writing output data file CaH2_ambient.save
     NEW-OLD atomic charge density approx. for the potential
     NEW k-points: (use verbosity='high' to print them)
     extrapolated charge   50.47505, renormalised to   48.00000

     total cpu time spent up to now is     3232.7 secs

     per-process dynamical memory:    23.0 Mb

     Self-consistent Calculation

     iteration #  1     ecut=    40.00 Ry     beta=0.30
     Davidson diagonalization with overlap
     ethr =  1.00E-06,  avg # of iterations =  4.4

     total cpu time spent up to now is     3377.9 secs

     total energy              =    -302.61880307 Ry
     Harris-Foulkes estimate   =    -300.11449393 Ry
     estimated scf accuracy    <       0.14017080 Ry

     iteration #  2     ecut=    40.00 Ry     beta=0.30
     Davidson diagonalization with overlap
     ethr =  2.92E-04,  avg # of iterations =  2.0

     total cpu time spent up to now is     3443.9 secs

     total energy              =    -302.72733865 Ry
     Harris-Foulkes estimate   =    -302.72806063 Ry
     estimated scf accuracy    <       0.00397754 Ry

     iteration #  3     ecut=    40.00 Ry     beta=0.30
     Davidson diagonalization with overlap
     ethr =  8.29E-06,  avg # of iterations =  1.3

     total cpu time spent up to now is     3492.4 secs

     total energy              =    -302.72610503 Ry
     Harris-Foulkes estimate   =    -302.72745542 Ry
     estimated scf accuracy    <       0.00244044 Ry

     iteration #  4     ecut=    40.00 Ry     beta=0.30
     Davidson diagonalization with overlap
     ethr =  5.08E-06,  avg # of iterations =  2.0

     total cpu time spent up to now is     3542.7 secs

     total energy              =    -302.72646830 Ry
     Harris-Foulkes estimate   =    -302.72647451 Ry
     estimated scf accuracy    <       0.00009512 Ry

     iteration #  5     ecut=    40.00 Ry     beta=0.30
     Davidson diagonalization with overlap
     ethr =  1.98E-07,  avg # of iterations =  1.5

     total cpu time spent up to now is     3585.5 secs

     total energy              =    -302.72646865 Ry
     Harris-Foulkes estimate   =    -302.72647339 Ry
     estimated scf accuracy    <       0.00003930 Ry

     iteration #  6     ecut=    40.00 Ry     beta=0.30
     Davidson diagonalization with overlap
     ethr =  8.19E-08,  avg # of iterations =  2.0

     total cpu time spent up to now is     3638.0 secs

     total energy              =    -302.72647162 Ry
     Harris-Foulkes estimate   =    -302.72647225 Ry
     estimated scf accuracy    <       0.00000131 Ry

     iteration #  7     ecut=    40.00 Ry     beta=0.30
     Davidson diagonalization with overlap
     ethr =  2.73E-09,  avg # of iterations =  2.1

     total cpu time spent up to now is     3690.5 secs

     End of self-consistent calculation

     Number of k-points >= 100: set verbosity='high' to print the bands.

!    total energy              =    -302.72647194 Ry
     Harris-Foulkes estimate   =    -302.72647188 Ry
     estimated scf accuracy    <       0.00000018 Ry

     The total energy is the sum of the following terms:

     one-electron contribution =     -81.23530529 Ry
     hartree contribution      =      55.89820481 Ry
     xc contribution           =     -47.82829537 Ry
     ewald contribution        =    -229.56107609 Ry

     convergence has been achieved in   7 iterations

     Forces acting on atoms (Ry/au):

     atom    1 type  2   force =     0.00761687   -0.00047355    0.00798044
     atom    2 type  2   force =    -0.00754035   -0.00005112    0.00803241
     atom    3 type  2   force =     0.00790938    0.00005903   -0.00823136
     atom    4 type  2   force =    -0.00808466    0.00049227   -0.00852827
     atom    5 type  1   force =    -0.00535474    0.00011044    0.00227983
     atom    6 type  1   force =     0.00556553   -0.00021244    0.00193355
     atom    7 type  1   force =    -0.00560318    0.00020677   -0.00240917
     atom    8 type  1   force =     0.00539968   -0.00011832    0.00171211
     atom    9 type  1   force =    -0.00042443    0.00007354    0.01331077
     atom   10 type  1   force =     0.00047031   -0.00010952    0.01324776
     atom   11 type  1   force =    -0.00039723    0.00010423   -0.01585612
     atom   12 type  1   force =     0.00044282   -0.00008134   -0.01347193

     Total force =     0.037899     Total SCF correction =     0.000438


     entering subroutine stress ...

          total   stress  (Ry/bohr**3)                   (kbar)     P=  386.89
   0.00251887   0.00000023  -0.00000418        370.54      0.03     -0.62
   0.00000023   0.00265206   0.00000056          0.03    390.13      0.08
  -0.00000418   0.00000056   0.00271909         -0.62      0.08    399.99


     number of scf cycles    =   4
     number of bfgs steps    =   3

     enthalpy old            =    -300.8491460811 Ry
     enthalpy new            =    -300.8628210516 Ry

     CASE: enthalpy_new < enthalpy_old

     new trust radius        =       0.0247168511 bohr
     new conv_thr            =       0.0000001586 Ry

     new unit-cell volume =    681.07933 a.u.^3 (   100.92554 Ang^3 )

CELL_PARAMETERS (alat= 11.28030000)
   0.874906384   0.000021274  -0.000433835
   0.000012880   0.534014030   0.000018858
  -0.000499363   0.000035788   1.015597455

ATOMIC_POSITIONS (crystal)
Ca       0.241783136   0.249595033   0.111987269
Ca       0.257932830  -0.249839263   0.611831825
Ca       0.742281851   0.249841607   0.387793460
Ca      -0.242044809  -0.249589420  -0.112105226
H        0.354530944   0.250044147   0.426764510
H        0.145481361  -0.250077683   0.926622309
H        0.854530091   0.250076022   0.073265001
H       -0.354609742  -0.250046911  -0.428300984
H        0.975437762   0.250025494   0.679244361
H       -0.475478193  -0.250036003   1.179234947
H        1.475593104   0.250034562  -0.177072086
H       -0.975438335  -0.250027586  -0.679265385



     Writing output data file CaH2_ambient.save
     NEW-OLD atomic charge density approx. for the potential
     NEW k-points: (use verbosity='high' to print them)
     extrapolated charge   47.74735, renormalised to   48.00000

     total cpu time spent up to now is     3780.4 secs

     per-process dynamical memory:    23.0 Mb

     Self-consistent Calculation

     iteration #  1     ecut=    40.00 Ry     beta=0.30
     Davidson diagonalization with overlap
     ethr =  1.00E-06,  avg # of iterations =  4.0

     total cpu time spent up to now is     3889.9 secs

     total energy              =    -302.71546931 Ry
     Harris-Foulkes estimate   =    -302.97502290 Ry
     estimated scf accuracy    <       0.00157368 Ry

     iteration #  2     ecut=    40.00 Ry     beta=0.30
     Davidson diagonalization with overlap
     ethr =  3.28E-06,  avg # of iterations =  2.0

     total cpu time spent up to now is     3960.0 secs

     total energy              =    -302.71649736 Ry
     Harris-Foulkes estimate   =    -302.71651453 Ry
     estimated scf accuracy    <       0.00009214 Ry

     iteration #  3     ecut=    40.00 Ry     beta=0.30
     Davidson diagonalization with overlap
     ethr =  1.92E-07,  avg # of iterations =  1.0

     total cpu time spent up to now is     4002.5 secs

     total energy              =    -302.71647079 Ry
     Harris-Foulkes estimate   =    -302.71649917 Ry
     estimated scf accuracy    <       0.00005242 Ry

     iteration #  4     ecut=    40.00 Ry     beta=0.30
     Davidson diagonalization with overlap
     ethr =  1.09E-07,  avg # of iterations =  2.0

     total cpu time spent up to now is     4060.3 secs

     total energy              =    -302.71647848 Ry
     Harris-Foulkes estimate   =    -302.71647852 Ry
     estimated scf accuracy    <       0.00000162 Ry

     iteration #  5     ecut=    40.00 Ry     beta=0.30
     Davidson diagonalization with overlap
     ethr =  3.38E-09,  avg # of iterations =  1.8

     total cpu time spent up to now is     4105.0 secs

     total energy              =    -302.71647858 Ry
     Harris-Foulkes estimate   =    -302.71647858 Ry
     estimated scf accuracy    <       0.00000037 Ry

     iteration #  6     ecut=    40.00 Ry     beta=0.30
     Davidson diagonalization with overlap
     ethr =  7.70E-10,  avg # of iterations =  2.0

     total cpu time spent up to now is     4151.0 secs

     End of self-consistent calculation

     Number of k-points >= 100: set verbosity='high' to print the bands.

!    total energy              =    -302.71647860 Ry
     Harris-Foulkes estimate   =    -302.71647860 Ry
     estimated scf accuracy    <       0.00000001 Ry

     The total energy is the sum of the following terms:

     one-electron contribution =     -80.47722958 Ry
     hartree contribution      =      55.66882032 Ry
     xc contribution           =     -47.84911819 Ry
     ewald contribution        =    -230.05895115 Ry

     convergence has been achieved in   6 iterations

     Forces acting on atoms (Ry/au):

     atom    1 type  2   force =     0.00718034   -0.00046653    0.00574248
     atom    2 type  2   force =    -0.00693655   -0.00009335    0.00589264
     atom    3 type  2   force =     0.00707131    0.00009928   -0.00581220
     atom    4 type  2   force =    -0.00737280    0.00047393   -0.00608388
     atom    5 type  1   force =    -0.00573601    0.00009757    0.00317085
     atom    6 type  1   force =     0.00594484   -0.00022327    0.00284023
     atom    7 type  1   force =    -0.00602303    0.00022138   -0.00331537
     atom    8 type  1   force =     0.00585176   -0.00010170    0.00011593
     atom    9 type  1   force =    -0.00109503    0.00007696    0.01263976
     atom   10 type  1   force =     0.00119969   -0.00012075    0.01254686
     atom   11 type  1   force =    -0.00122316    0.00011877   -0.01494000
     atom   12 type  1   force =     0.00113863   -0.00008229   -0.01279730

     Total force =     0.034938     Total SCF correction =     0.000178


     entering subroutine stress ...

          total   stress  (Ry/bohr**3)                   (kbar)     P=  395.67
   0.00258973   0.00000010  -0.00000198        380.96      0.01     -0.29
   0.00000010   0.00270403   0.00000068          0.01    397.78      0.10
  -0.00000198   0.00000068   0.00277545         -0.29      0.10    408.28


     number of scf cycles    =   5
     number of bfgs steps    =   4

     enthalpy old            =    -300.8628210516 Ry
     enthalpy new            =    -300.8645250175 Ry

     CASE: enthalpy_new < enthalpy_old

     new trust radius        =       0.0272316574 bohr
     new conv_thr            =       0.0000001494 Ry

     new unit-cell volume =    678.19773 a.u.^3 (   100.49853 Ang^3 )

CELL_PARAMETERS (alat= 11.28030000)
   0.870342712   0.000026029  -0.000522660
   0.000015778   0.533628479   0.000031112
  -0.000603310   0.000059048   1.017337938

ATOMIC_POSITIONS (crystal)
Ca       0.242713318   0.249498757   0.112731395
Ca       0.257024687  -0.249855053   0.612589331
Ca       0.743218514   0.249858765   0.387033669
Ca      -0.243012622  -0.249490921  -0.112895904
H        0.353827868   0.250065777   0.427073275
H        0.146210760  -0.250124043   0.926893207
H        0.853792938   0.250121749   0.072941309
H       -0.353895810  -0.250069621  -0.428216181
H        0.975332120   0.250041641   0.680679410
H       -0.475363925  -0.250060577   1.180660704
H        1.475480621   0.250058510  -0.178772143
H       -0.975328469  -0.250044985  -0.680718072



     Writing output data file CaH2_ambient.save
     NEW-OLD atomic charge density approx. for the potential
     NEW k-points: (use verbosity='high' to print them)
     extrapolated charge   47.83004, renormalised to   48.00000

     total cpu time spent up to now is     4240.9 secs

     per-process dynamical memory:    23.0 Mb

     Self-consistent Calculation

     iteration #  1     ecut=    40.00 Ry     beta=0.30
     Davidson diagonalization with overlap
     ethr =  1.00E-06,  avg # of iterations =  4.0

     total cpu time spent up to now is     4352.2 secs

     total energy              =    -302.71012975 Ry
     Harris-Foulkes estimate   =    -302.88336369 Ry
     estimated scf accuracy    <       0.00075275 Ry

     iteration #  2     ecut=    40.00 Ry     beta=0.30
     Davidson diagonalization with overlap
     ethr =  1.57E-06,  avg # of iterations =  2.0

     total cpu time spent up to now is     4419.4 secs

     total energy              =    -302.71058955 Ry
     Harris-Foulkes estimate   =    -302.71060142 Ry
     estimated scf accuracy    <       0.00008306 Ry

     iteration #  3     ecut=    40.00 Ry     beta=0.30
     Davidson diagonalization with overlap
     ethr =  1.73E-07,  avg # of iterations =  1.0

     total cpu time spent up to now is     4461.3 secs

     total energy              =    -302.71057168 Ry
     Harris-Foulkes estimate   =    -302.71059058 Ry
     estimated scf accuracy    <       0.00004546 Ry

     iteration #  4     ecut=    40.00 Ry     beta=0.30
     Davidson diagonalization with overlap
     ethr =  9.47E-08,  avg # of iterations =  2.0

     total cpu time spent up to now is     4510.6 secs

     total energy              =    -302.71057674 Ry
     Harris-Foulkes estimate   =    -302.71057662 Ry
     estimated scf accuracy    <       0.00000082 Ry

     iteration #  5     ecut=    40.00 Ry     beta=0.30
     Davidson diagonalization with overlap
     ethr =  1.72E-09,  avg # of iterations =  2.1

     total cpu time spent up to now is     4559.9 secs

     total energy              =    -302.71057679 Ry
     Harris-Foulkes estimate   =    -302.71057682 Ry
     estimated scf accuracy    <       0.00000021 Ry

     iteration #  6     ecut=    40.00 Ry     beta=0.30
     Davidson diagonalization with overlap
     ethr =  4.46E-10,  avg # of iterations =  2.0

     total cpu time spent up to now is     4612.1 secs

     End of self-consistent calculation

     Number of k-points >= 100: set verbosity='high' to print the bands.

!    total energy              =    -302.71057681 Ry
     Harris-Foulkes estimate   =    -302.71057681 Ry
     estimated scf accuracy    <       0.00000001 Ry

     The total energy is the sum of the following terms:

     one-electron contribution =     -79.94240434 Ry
     hartree contribution      =      55.49792085 Ry
     xc contribution           =     -47.86120018 Ry
     ewald contribution        =    -230.40489314 Ry

     convergence has been achieved in   6 iterations

     Forces acting on atoms (Ry/au):

     atom    1 type  2   force =     0.00644770   -0.00038696    0.00275432
     atom    2 type  2   force =    -0.00602219   -0.00012157    0.00290937
     atom    3 type  2   force =     0.00588861    0.00012403   -0.00257992
     atom    4 type  2   force =    -0.00631218    0.00036956   -0.00276252
     atom    5 type  1   force =    -0.00616243    0.00007647    0.00397247
     atom    6 type  1   force =     0.00634263   -0.00023292    0.00370940
     atom    7 type  1   force =    -0.00645901    0.00023811   -0.00411374
     atom    8 type  1   force =     0.00633994   -0.00007308   -0.00167292
     atom    9 type  1   force =    -0.00200027    0.00007882    0.01141849
     atom   10 type  1   force =     0.00215954   -0.00013261    0.01131314
     atom   11 type  1   force =    -0.00229030    0.00013785   -0.01338430
     atom   12 type  1   force =     0.00206797   -0.00007771   -0.01156380

     Total force =     0.031337     Total SCF correction =     0.000209


     entering subroutine stress ...

          total   stress  (Ry/bohr**3)                   (kbar)     P=  400.73
   0.00264053  -0.00000008   0.00000070        388.44     -0.01      0.10
  -0.00000008   0.00273340   0.00000083         -0.01    402.10      0.12
   0.00000070   0.00000083   0.00279832          0.10      0.12    411.65


     number of scf cycles    =   6
     number of bfgs steps    =   5

     enthalpy old            =    -300.8645250175 Ry
     enthalpy new            =    -300.8664587271 Ry

     CASE: enthalpy_new < enthalpy_old

     new trust radius        =       0.0409747720 bohr
     new conv_thr            =       0.0000001338 Ry

     new unit-cell volume =    675.23842 a.u.^3 (   100.06001 Ang^3 )

CELL_PARAMETERS (alat= 11.28030000)
   0.863496364   0.000029227  -0.000603992
   0.000017791   0.533448457   0.000056188
  -0.000701942   0.000106598   1.021274364

ATOMIC_POSITIONS (crystal)
Ca       0.244327615   0.249338976   0.113776012
Ca       0.255472886  -0.249889661   0.613658192
Ca       0.744790491   0.249895186   0.385986599
Ca      -0.244656615  -0.249332172  -0.113989885
H        0.352488145   0.250101185   0.427725721
H        0.147594841  -0.250210972   0.927483619
H        0.852390170   0.250208961   0.072262059
H       -0.352528875  -0.250105461  -0.428251698
H        0.975029154   0.250071643   0.683185179
H       -0.475038820  -0.250107988   1.183148203
H        1.475145962   0.250106251  -0.181729055
H       -0.975014953  -0.250075948  -0.683254946



     Writing output data file CaH2_ambient.save
     NEW-OLD atomic charge density approx. for the potential
     NEW k-points: (use verbosity='high' to print them)
     extrapolated charge   47.82470, renormalised to   48.00000

     total cpu time spent up to now is     4701.8 secs

     per-process dynamical memory:    23.0 Mb

     Self-consistent Calculation

     iteration #  1     ecut=    40.00 Ry     beta=0.30
     Davidson diagonalization with overlap
     ethr =  1.00E-06,  avg # of iterations =  4.2

     total cpu time spent up to now is     4815.2 secs

     total energy              =    -302.70472593 Ry
     Harris-Foulkes estimate   =    -302.88196937 Ry
     estimated scf accuracy    <       0.00094715 Ry

     iteration #  2     ecut=    40.00 Ry     beta=0.30
     Davidson diagonalization with overlap
     ethr =  1.97E-06,  avg # of iterations =  2.0

     total cpu time spent up to now is     4880.9 secs

     total energy              =    -302.70519951 Ry
     Harris-Foulkes estimate   =    -302.70522518 Ry
     estimated scf accuracy    <       0.00019839 Ry

     iteration #  3     ecut=    40.00 Ry     beta=0.30
     Davidson diagonalization with overlap
     ethr =  4.13E-07,  avg # of iterations =  1.0

     total cpu time spent up to now is     4924.7 secs

     total energy              =    -302.70516314 Ry
     Harris-Foulkes estimate   =    -302.70520117 Ry
     estimated scf accuracy    <       0.00010529 Ry

     iteration #  4     ecut=    40.00 Ry     beta=0.30
     Davidson diagonalization with overlap
     ethr =  2.19E-07,  avg # of iterations =  2.0

     total cpu time spent up to now is     4974.2 secs

     total energy              =    -302.70517298 Ry
     Harris-Foulkes estimate   =    -302.70517258 Ry
     estimated scf accuracy    <       0.00000123 Ry

     iteration #  5     ecut=    40.00 Ry     beta=0.30
     Davidson diagonalization with overlap
     ethr =  2.56E-09,  avg # of iterations =  2.1

     total cpu time spent up to now is     5025.2 secs

     total energy              =    -302.70517306 Ry
     Harris-Foulkes estimate   =    -302.70517312 Ry
     estimated scf accuracy    <       0.00000040 Ry

     iteration #  6     ecut=    40.00 Ry     beta=0.30
     Davidson diagonalization with overlap
     ethr =  8.42E-10,  avg # of iterations =  2.0

     total cpu time spent up to now is     5073.4 secs

     End of self-consistent calculation

     Number of k-points >= 100: set verbosity='high' to print the bands.

!    total energy              =    -302.70517309 Ry
     Harris-Foulkes estimate   =    -302.70517309 Ry
     estimated scf accuracy    <       0.00000003 Ry

     The total energy is the sum of the following terms:

     one-electron contribution =     -79.36634906 Ry
     hartree contribution      =      55.30334109 Ry
     xc contribution           =     -47.87103428 Ry
     ewald contribution        =    -230.77113084 Ry

     convergence has been achieved in   6 iterations

     Forces acting on atoms (Ry/au):

     atom    1 type  2   force =     0.00518858   -0.00010012   -0.00155214
     atom    2 type  2   force =    -0.00460593   -0.00010842   -0.00134729
     atom    3 type  2   force =     0.00414827    0.00010682    0.00199520
     atom    4 type  2   force =    -0.00463654    0.00004726    0.00200022
     atom    5 type  1   force =    -0.00676302    0.00004142    0.00456327
     atom    6 type  1   force =     0.00686557   -0.00023193    0.00445334
     atom    7 type  1   force =    -0.00701579    0.00024526   -0.00467035
     atom    8 type  1   force =     0.00698742   -0.00002705   -0.00379794
     atom    9 type  1   force =    -0.00331569    0.00007508    0.00934713
     atom   10 type  1   force =     0.00351900   -0.00014581    0.00926158
     atom   11 type  1   force =    -0.00377035    0.00016107   -0.01078956
     atom   12 type  1   force =     0.00339848   -0.00006357   -0.00946345

     Total force =     0.028202     Total SCF correction =     0.000408


     entering subroutine stress ...

          total   stress  (Ry/bohr**3)                   (kbar)     P=  404.71
   0.00269204  -0.00000036   0.00000423        396.01     -0.05      0.62
  -0.00000036   0.00276190   0.00000093         -0.05    406.29      0.14
   0.00000423   0.00000093   0.00279945          0.62      0.14    411.81


     number of scf cycles    =   7
     number of bfgs steps    =   6

     enthalpy old            =    -300.8664587271 Ry
     enthalpy new            =    -300.8691017975 Ry

     CASE: enthalpy_new < enthalpy_old

     new trust radius        =       0.0618142006 bohr
     new conv_thr            =       0.0000001079 Ry

     new unit-cell volume =    671.92899 a.u.^3 (    99.56960 Ang^3 )

CELL_PARAMETERS (alat= 11.28030000)
   0.853225981   0.000024655  -0.000620917
   0.000015301   0.533680082   0.000101803
  -0.000734976   0.000192915   1.028055609

ATOMIC_POSITIONS (crystal)
Ca       0.246974288   0.249128548   0.115065321
Ca       0.252957286  -0.249946730   0.614996184
Ca       0.747296943   0.249954511   0.384726392
Ca      -0.247297996  -0.249131888  -0.115308496
H        0.350060189   0.250154978   0.428943549
H        0.150088954  -0.250362854   0.928612107
H        0.849858859   0.250363219   0.071001935
H       -0.350047050  -0.250157443  -0.428579722
H        0.974316069   0.250123309   0.687323893
H       -0.474281057  -0.250194078   1.187257450
H        1.474355032   0.250195264  -0.186594019
H       -0.974281517  -0.250126835  -0.687444593



     Writing output data file CaH2_ambient.save
     NEW-OLD atomic charge density approx. for the potential
     NEW k-points: (use verbosity='high' to print them)
     extrapolated charge   47.80299, renormalised to   48.00000

     total cpu time spent up to now is     5163.1 secs

     per-process dynamical memory:    23.0 Mb

     Self-consistent Calculation

     iteration #  1     ecut=    40.00 Ry     beta=0.30
     Davidson diagonalization with overlap
     ethr =  1.00E-06,  avg # of iterations =  4.9

     total cpu time spent up to now is     5279.1 secs

     total energy              =    -302.69873981 Ry
     Harris-Foulkes estimate   =    -302.89602553 Ry
     estimated scf accuracy    <       0.00159310 Ry

     iteration #  2     ecut=    40.00 Ry     beta=0.30
     Davidson diagonalization with overlap
     ethr =  3.32E-06,  avg # of iterations =  2.0

     total cpu time spent up to now is     5344.8 secs

     total energy              =    -302.69929578 Ry
     Harris-Foulkes estimate   =    -302.69936649 Ry
     estimated scf accuracy    <       0.00052364 Ry

     iteration #  3     ecut=    40.00 Ry     beta=0.30
     Davidson diagonalization with overlap
     ethr =  1.09E-06,  avg # of iterations =  1.0

     total cpu time spent up to now is     5388.4 secs

     total energy              =    -302.69920806 Ry
     Harris-Foulkes estimate   =    -302.69929947 Ry
     estimated scf accuracy    <       0.00026356 Ry

     iteration #  4     ecut=    40.00 Ry     beta=0.30
     Davidson diagonalization with overlap
     ethr =  5.49E-07,  avg # of iterations =  2.0

     total cpu time spent up to now is     5438.1 secs

     total energy              =    -302.69923032 Ry
     Harris-Foulkes estimate   =    -302.69922937 Ry
     estimated scf accuracy    <       0.00000248 Ry

     iteration #  5     ecut=    40.00 Ry     beta=0.30
     Davidson diagonalization with overlap
     ethr =  5.16E-09,  avg # of iterations =  2.0

     total cpu time spent up to now is     5490.4 secs

     total energy              =    -302.69923055 Ry
     Harris-Foulkes estimate   =    -302.69923064 Ry
     estimated scf accuracy    <       0.00000095 Ry

     iteration #  6     ecut=    40.00 Ry     beta=0.30
     Davidson diagonalization with overlap
     ethr =  1.97E-09,  avg # of iterations =  2.0

     total cpu time spent up to now is     5538.3 secs

     End of self-consistent calculation

     Number of k-points >= 100: set verbosity='high' to print the bands.

!    total energy              =    -302.69923061 Ry
     Harris-Foulkes estimate   =    -302.69923063 Ry
     estimated scf accuracy    <       0.00000006 Ry

     The total energy is the sum of the following terms:

     one-electron contribution =     -78.69907587 Ry
     hartree contribution      =      55.06565228 Ry
     xc contribution           =     -47.87850802 Ry
     ewald contribution        =    -231.18729900 Ry

     convergence has been achieved in   6 iterations

     Forces acting on atoms (Ry/au):

     atom    1 type  2   force =     0.00303634    0.00045669   -0.00725583
     atom    2 type  2   force =    -0.00270793    0.00001142   -0.00685573
     atom    3 type  2   force =     0.00190634   -0.00001737    0.00775598
     atom    4 type  2   force =    -0.00208996   -0.00050177    0.00828542
     atom    5 type  1   force =    -0.00762013   -0.00001284    0.00436910
     atom    6 type  1   force =     0.00758028   -0.00018293    0.00457340
     atom    7 type  1   force =    -0.00772599    0.00019046   -0.00438704
     atom    8 type  1   force =     0.00786501    0.00002921   -0.00577409
     atom    9 type  1   force =    -0.00489989    0.00004868    0.00628957
     atom   10 type  1   force =     0.00510987   -0.00014923    0.00628384
     atom   11 type  1   force =    -0.00542151    0.00016235   -0.00694784
     atom   12 type  1   force =     0.00496757   -0.00003468   -0.00633677

     Total force =     0.029239     Total SCF correction =     0.000654


     entering subroutine stress ...

          total   stress  (Ry/bohr**3)                   (kbar)     P=  407.52
   0.00274194  -0.00000071   0.00000795        403.35     -0.10      1.17
  -0.00000071   0.00279695   0.00000061         -0.10    411.45      0.09
   0.00000795   0.00000061   0.00277188          1.17      0.09    407.76


     number of scf cycles    =   8
     number of bfgs steps    =   7

     enthalpy old            =    -300.8691017975 Ry
     enthalpy new            =    -300.8721581243 Ry

     CASE: enthalpy_new < enthalpy_old

     new trust radius        =       0.0936071622 bohr
     new conv_thr            =       0.0000000829 Ry

     new unit-cell volume =    668.14976 a.u.^3 (    99.00958 Ang^3 )

CELL_PARAMETERS (alat= 11.28030000)
   0.837820688  -0.000001717  -0.000450297
   0.000000277   0.535070677   0.000173102
  -0.000575184   0.000327280   1.038364438

ATOMIC_POSITIONS (crystal)
Ca       0.251177587   0.248941474   0.116274339
Ca       0.248943312  -0.250010419   0.616323768
Ca       0.751225047   0.250020691   0.383585377
Ca      -0.251410985  -0.248961673  -0.116461978
H        0.345652196   0.250231081   0.431070435
H        0.154584939  -0.250613661   0.930637150
H        0.845297720   0.250616772   0.068816506
H       -0.345539687  -0.250229393  -0.429539951
H        0.972755054   0.250205588   0.694032947
H       -0.472638823  -0.250346410   1.193927866
H        1.472640884   0.250352494  -0.194435436
H       -0.972687244  -0.250206545  -0.694231024



     Writing output data file CaH2_ambient.save
     NEW-OLD atomic charge density approx. for the potential
     NEW k-points: (use verbosity='high' to print them)
     extrapolated charge   47.77375, renormalised to   48.00000

     total cpu time spent up to now is     5627.9 secs

     per-process dynamical memory:    23.0 Mb

     Self-consistent Calculation

     iteration #  1     ecut=    40.00 Ry     beta=0.30
     Davidson diagonalization with overlap
     ethr =  1.00E-06,  avg # of iterations =  5.6

     total cpu time spent up to now is     5751.4 secs

     total energy              =    -302.69135633 Ry
     Harris-Foulkes estimate   =    -302.91532287 Ry
     estimated scf accuracy    <       0.00324115 Ry

     iteration #  2     ecut=    40.00 Ry     beta=0.30
     Davidson diagonalization with overlap
     ethr =  6.75E-06,  avg # of iterations =  2.0

     total cpu time spent up to now is     5818.1 secs

     total energy              =    -302.69195904 Ry
     Harris-Foulkes estimate   =    -302.69217862 Ry
     estimated scf accuracy    <       0.00143323 Ry

     iteration #  3     ecut=    40.00 Ry     beta=0.30
     Davidson diagonalization with overlap
     ethr =  2.99E-06,  avg # of iterations =  1.0

     total cpu time spent up to now is     5864.6 secs

     total energy              =    -302.69174861 Ry
     Harris-Foulkes estimate   =    -302.69196960 Ry
     estimated scf accuracy    <       0.00064361 Ry

     iteration #  4     ecut=    40.00 Ry     beta=0.30
     Davidson diagonalization with overlap
     ethr =  1.34E-06,  avg # of iterations =  2.0

     total cpu time spent up to now is     5916.0 secs

     total energy              =    -302.69179918 Ry
     Harris-Foulkes estimate   =    -302.69179722 Ry
     estimated scf accuracy    <       0.00000557 Ry

     iteration #  5     ecut=    40.00 Ry     beta=0.30
     Davidson diagonalization with overlap
     ethr =  1.16E-08,  avg # of iterations =  2.3

     total cpu time spent up to now is     5967.2 secs

     total energy              =    -302.69180003 Ry
     Harris-Foulkes estimate   =    -302.69179990 Ry
     estimated scf accuracy    <       0.00000228 Ry

     iteration #  6     ecut=    40.00 Ry     beta=0.30
     Davidson diagonalization with overlap
     ethr =  4.76E-09,  avg # of iterations =  2.0

     total cpu time spent up to now is     6013.9 secs

     total energy              =    -302.69180018 Ry
     Harris-Foulkes estimate   =    -302.69180020 Ry
     estimated scf accuracy    <       0.00000012 Ry

     iteration #  7     ecut=    40.00 Ry     beta=0.30
     Davidson diagonalization with overlap
     ethr =  2.56E-10,  avg # of iterations =  2.0

     total cpu time spent up to now is     6059.6 secs

     End of self-consistent calculation

     Number of k-points >= 100: set verbosity='high' to print the bands.

!    total energy              =    -302.69180018 Ry
     Harris-Foulkes estimate   =    -302.69180019 Ry
     estimated scf accuracy    <       0.00000007 Ry

     The total energy is the sum of the following terms:

     one-electron contribution =     -77.91751147 Ry
     hartree contribution      =      54.76932181 Ry
     xc contribution           =     -47.88107275 Ry
     ewald contribution        =    -231.66253776 Ry

     convergence has been achieved in   7 iterations

     Forces acting on atoms (Ry/au):

     atom    1 type  2   force =    -0.00007603    0.00088154   -0.01348502
     atom    2 type  2   force =    -0.00059722    0.00027310   -0.01303873
     atom    3 type  2   force =    -0.00045956   -0.00028104    0.01393929
     atom    4 type  2   force =     0.00101658   -0.00085805    0.01496332
     atom    5 type  1   force =    -0.00892596   -0.00008089    0.00221153
     atom    6 type  1   force =     0.00870711   -0.00000112    0.00299017
     atom    7 type  1   force =    -0.00871803   -0.00001280   -0.00207516
     atom    8 type  1   force =     0.00918467    0.00008529   -0.00629048
     atom    9 type  1   force =    -0.00613013   -0.00002326    0.00230681
     atom   10 type  1   force =     0.00626019   -0.00009174    0.00243284
     atom   11 type  1   force =    -0.00637954    0.00008267   -0.00176483
     atom   12 type  1   force =     0.00611792    0.00002628   -0.00218975

     Total force =     0.036345     Total SCF correction =     0.000668


     entering subroutine stress ...

          total   stress  (Ry/bohr**3)                   (kbar)     P=  408.05
   0.00277651  -0.00000094   0.00000977        408.44     -0.14      1.44
  -0.00000094   0.00284185  -0.00000089         -0.14    418.05     -0.13
   0.00000977  -0.00000089   0.00270325          1.44     -0.13    397.66


     number of scf cycles    =   9
     number of bfgs steps    =   8

     enthalpy old            =    -300.8721581243 Ry
     enthalpy new            =    -300.8750039889 Ry

     CASE: enthalpy_new < enthalpy_old

     new trust radius        =       0.0631396469 bohr
     new conv_thr            =       0.0000001496 Ry

     new unit-cell volume =    666.61546 a.u.^3 (    98.78222 Ang^3 )

CELL_PARAMETERS (alat= 11.28030000)
   0.828182924  -0.000036894  -0.000171390
  -0.000019682   0.537292882   0.000200882
  -0.000297360   0.000378817   1.043701143

ATOMIC_POSITIONS (crystal)
Ca       0.253899087   0.248942440   0.116104975
Ca       0.246252458  -0.250000000   0.616262313
Ca       0.753790104   0.250011180   0.383817614
Ca      -0.254026171  -0.248963979  -0.116156921
H        0.342058425   0.250269418   0.432519251
H        0.158216969  -0.250767744   0.932087157
H        0.841628989   0.250768951   0.067343655
H       -0.341864131  -0.250266168  -0.430528989
H        0.971289346   0.250252606   0.698581898
H       -0.471115869  -0.250454172   1.198464463
H        1.471075472   0.250460289  -0.199677020
H       -0.971204677  -0.250252820  -0.698818396



     Writing output data file CaH2_ambient.save
     NEW-OLD atomic charge density approx. for the potential
     NEW k-points: (use verbosity='high' to print them)
     extrapolated charge   47.90794, renormalised to   48.00000

     total cpu time spent up to now is     6149.5 secs

     per-process dynamical memory:    23.0 Mb

     Self-consistent Calculation

     iteration #  1     ecut=    40.00 Ry     beta=0.30
     Davidson diagonalization with overlap
     ethr =  1.00E-06,  avg # of iterations =  4.9

     total cpu time spent up to now is     6265.0 secs

     total energy              =    -302.68952085 Ry
     Harris-Foulkes estimate   =    -302.78001197 Ry
     estimated scf accuracy    <       0.00129841 Ry

     iteration #  2     ecut=    40.00 Ry     beta=0.30
     Davidson diagonalization with overlap
     ethr =  2.71E-06,  avg # of iterations =  2.0

     total cpu time spent up to now is     6325.2 secs

     total energy              =    -302.68950686 Ry
     Harris-Foulkes estimate   =    -302.68965481 Ry
     estimated scf accuracy    <       0.00071550 Ry

     iteration #  3     ecut=    40.00 Ry     beta=0.30
     Davidson diagonalization with overlap
     ethr =  1.49E-06,  avg # of iterations =  1.0

     total cpu time spent up to now is     6372.1 secs

     total energy              =    -302.68944961 Ry
     Harris-Foulkes estimate   =    -302.68951807 Ry
     estimated scf accuracy    <       0.00020021 Ry

     iteration #  4     ecut=    40.00 Ry     beta=0.30
     Davidson diagonalization with overlap
     ethr =  4.17E-07,  avg # of iterations =  2.0

     total cpu time spent up to now is     6430.1 secs

     total energy              =    -302.68946533 Ry
     Harris-Foulkes estimate   =    -302.68946456 Ry
     estimated scf accuracy    <       0.00000245 Ry

     iteration #  5     ecut=    40.00 Ry     beta=0.30
     Davidson diagonalization with overlap
     ethr =  5.11E-09,  avg # of iterations =  2.1

     total cpu time spent up to now is     6484.2 secs

     total energy              =    -302.68946559 Ry
     Harris-Foulkes estimate   =    -302.68946559 Ry
     estimated scf accuracy    <       0.00000090 Ry

     iteration #  6     ecut=    40.00 Ry     beta=0.30
     Davidson diagonalization with overlap
     ethr =  1.87E-09,  avg # of iterations =  2.0

     total cpu time spent up to now is     6536.2 secs

     End of self-consistent calculation

     Number of k-points >= 100: set verbosity='high' to print the bands.

!    total energy              =    -302.68946567 Ry
     Harris-Foulkes estimate   =    -302.68946567 Ry
     estimated scf accuracy    <       0.00000003 Ry

     The total energy is the sum of the following terms:

     one-electron contribution =     -77.56245935 Ry
     hartree contribution      =      54.61660594 Ry
     xc contribution           =     -47.87596328 Ry
     ewald contribution        =    -231.86764898 Ry

     convergence has been achieved in   6 iterations

     Forces acting on atoms (Ry/au):

     atom    1 type  2   force =    -0.00140908    0.00080374   -0.01456453
     atom    2 type  2   force =     0.00044959    0.00043296   -0.01451373
     atom    3 type  2   force =    -0.00137222   -0.00045284    0.01511275
     atom    4 type  2   force =     0.00196391   -0.00076049    0.01575829
     atom    5 type  1   force =    -0.00947816   -0.00009455   -0.00049993
     atom    6 type  1   force =     0.00917984    0.00017497    0.00061602
     atom    7 type  1   force =    -0.00904083   -0.00018950    0.00073333
     atom    8 type  1   force =     0.00968512    0.00009843   -0.00438842
     atom    9 type  1   force =    -0.00565725   -0.00006907    0.00054155
     atom   10 type  1   force =     0.00563345    0.00000669    0.00071250
     atom   11 type  1   force =    -0.00550061   -0.00002105    0.00077483
     atom   12 type  1   force =     0.00554626    0.00007071   -0.00028268

     Total force =     0.037489     Total SCF correction =     0.000301


     entering subroutine stress ...

          total   stress  (Ry/bohr**3)                   (kbar)     P=  405.41
   0.00276238  -0.00000073   0.00000732        406.36     -0.11      1.08
  -0.00000073   0.00285290  -0.00000220         -0.11    419.68     -0.32
   0.00000732  -0.00000220   0.00265239          1.08     -0.32    390.18


     number of scf cycles    =  10
     number of bfgs steps    =   9

     enthalpy old            =    -300.8750039889 Ry
     enthalpy new            =    -300.8768414438 Ry

     CASE: enthalpy_new < enthalpy_old

     new trust radius        =       0.0697572088 bohr
     new conv_thr            =       0.0000001576 Ry

     new unit-cell volume =    664.98173 a.u.^3 (    98.54012 Ang^3 )

CELL_PARAMETERS (alat= 11.28030000)
   0.817601254  -0.000083698   0.000206542
  -0.000046133   0.540829842   0.000203989
   0.000079353   0.000383141   1.047720972

ATOMIC_POSITIONS (crystal)
Ca       0.256807310   0.249011568   0.115152638
Ca       0.243310954  -0.249933486   0.615414922
Ca       0.756552819   0.249942882   0.384869194
Ca      -0.256809620  -0.249028119  -0.115008574
H        0.337525692   0.250302480   0.433977368
H        0.162773239  -0.250908065   0.933618566
H        0.837046852   0.250905580   0.065875226
H       -0.337232663  -0.250297574  -0.431749879
H        0.969389743   0.250294572   0.703620707
H       -0.469161721  -0.250565301   1.203500617
H        1.469094633   0.250569531  -0.205390321
H       -0.969297240  -0.250294068  -0.703880464



     Writing output data file CaH2_ambient.save
     NEW-OLD atomic charge density approx. for the potential
     NEW k-points: (use verbosity='high' to print them)
     extrapolated charge   47.90173, renormalised to   48.00000

     total cpu time spent up to now is     6628.2 secs

     per-process dynamical memory:    23.0 Mb

     Self-consistent Calculation

     iteration #  1     ecut=    40.00 Ry     beta=0.30
     Davidson diagonalization with overlap
     ethr =  1.00E-06,  avg # of iterations =  5.0

     total cpu time spent up to now is     6755.7 secs

     total energy              =    -302.68751781 Ry
     Harris-Foulkes estimate   =    -302.78347590 Ry
     estimated scf accuracy    <       0.00170593 Ry

     iteration #  2     ecut=    40.00 Ry     beta=0.30
     Davidson diagonalization with overlap
     ethr =  3.55E-06,  avg # of iterations =  2.0

     total cpu time spent up to now is     6809.2 secs

     total energy              =    -302.68746774 Ry
     Harris-Foulkes estimate   =    -302.68767139 Ry
     estimated scf accuracy    <       0.00095009 Ry

     iteration #  3     ecut=    40.00 Ry     beta=0.30
     Davidson diagonalization with overlap
     ethr =  1.98E-06,  avg # of iterations =  1.0

     total cpu time spent up to now is     6852.6 secs

     total energy              =    -302.68740225 Ry
     Harris-Foulkes estimate   =    -302.68748337 Ry
     estimated scf accuracy    <       0.00023930 Ry

     iteration #  4     ecut=    40.00 Ry     beta=0.30
     Davidson diagonalization with overlap
     ethr =  4.99E-07,  avg # of iterations =  2.0

     total cpu time spent up to now is     6906.5 secs

     total energy              =    -302.68742094 Ry
     Harris-Foulkes estimate   =    -302.68741993 Ry
     estimated scf accuracy    <       0.00000303 Ry

     iteration #  5     ecut=    40.00 Ry     beta=0.30
     Davidson diagonalization with overlap
     ethr =  6.31E-09,  avg # of iterations =  2.2

     total cpu time spent up to now is     6958.2 secs

     total energy              =    -302.68742126 Ry
     Harris-Foulkes estimate   =    -302.68742132 Ry
     estimated scf accuracy    <       0.00000107 Ry

     iteration #  6     ecut=    40.00 Ry     beta=0.30
     Davidson diagonalization with overlap
     ethr =  2.23E-09,  avg # of iterations =  2.0

     total cpu time spent up to now is     7012.2 secs

     End of self-consistent calculation

     Number of k-points >= 100: set verbosity='high' to print the bands.

!    total energy              =    -302.68742136 Ry
     Harris-Foulkes estimate   =    -302.68742135 Ry
     estimated scf accuracy    <       0.00000003 Ry

     The total energy is the sum of the following terms:

     one-electron contribution =     -77.17676175 Ry
     hartree contribution      =      54.44687014 Ry
     xc contribution           =     -47.86856090 Ry
     ewald contribution        =    -232.08896884 Ry

     convergence has been achieved in   6 iterations

     Forces acting on atoms (Ry/au):

     atom    1 type  2   force =    -0.00228142    0.00054263   -0.01392492
     atom    2 type  2   force =     0.00119404    0.00054859   -0.01446397
     atom    3 type  2   force =    -0.00179678   -0.00060339    0.01462942
     atom    4 type  2   force =     0.00233703   -0.00049212    0.01444882
     atom    5 type  1   force =    -0.01001210   -0.00008240   -0.00389725
     atom    6 type  1   force =     0.00964690    0.00037038   -0.00261969
     atom    7 type  1   force =    -0.00936319   -0.00037415    0.00423084
     atom    8 type  1   force =     0.01008843    0.00009219   -0.00111358
     atom    9 type  1   force =    -0.00418703   -0.00009975   -0.00072088
     atom   10 type  1   force =     0.00395893    0.00013685   -0.00054591
     atom   11 type  1   force =    -0.00354107   -0.00014504    0.00282395
     atom   12 type  1   force =     0.00395627    0.00010620    0.00115315

     Total force =     0.036582     Total SCF correction =     0.000199


     entering subroutine stress ...

          total   stress  (Ry/bohr**3)                   (kbar)     P=  401.73
   0.00273328  -0.00000034   0.00000277        402.08     -0.05      0.41
  -0.00000034   0.00285115  -0.00000339         -0.05    419.42     -0.50
   0.00000277  -0.00000339   0.00260826          0.41     -0.50    383.69


     number of scf cycles    =  11
     number of bfgs steps    =  10

     enthalpy old            =    -300.8768414438 Ry
     enthalpy new            =    -300.8792395029 Ry

     CASE: enthalpy_new < enthalpy_old

     new trust radius        =       0.1049392733 bohr
     new conv_thr            =       0.0000001463 Ry

     new unit-cell volume =    661.78284 a.u.^3 (    98.06610 Ang^3 )

CELL_PARAMETERS (alat= 11.28030000)
   0.801122057  -0.000155341   0.000771337
  -0.000086732   0.547347823   0.000171754
   0.000640790   0.000319320   1.051457627

ATOMIC_POSITIONS (crystal)
Ca       0.261109720   0.249150694   0.112939998
Ca       0.238891733  -0.249766986   0.613305987
Ca       0.760678745   0.249763997   0.387282283
Ca      -0.260937585  -0.249154188  -0.112499315
H        0.329959608   0.250346161   0.435845788
H        0.170351092  -0.251069249   0.935674866
H        0.829451060   0.251062069   0.064013937
H       -0.329518114  -0.250337091  -0.433534198
H        0.966310116   0.250346861   0.711270641
H       -0.466020908  -0.250710626   1.211155845
H        1.465948749   0.250712223  -0.213922287
H       -0.966224215  -0.250343866  -0.711533544



     Writing output data file CaH2_ambient.save
     NEW-OLD atomic charge density approx. for the potential
     NEW k-points: (use verbosity='high' to print them)
     extrapolated charge   47.80665, renormalised to   48.00000

     total cpu time spent up to now is     7102.8 secs

     per-process dynamical memory:    23.0 Mb

     Self-consistent Calculation

     iteration #  1     ecut=    40.00 Ry     beta=0.30
     Davidson diagonalization with overlap
     ethr =  1.00E-06,  avg # of iterations =  5.4

     total cpu time spent up to now is     7228.8 secs

     total energy              =    -302.68242425 Ry
     Harris-Foulkes estimate   =    -302.86919194 Ry
     estimated scf accuracy    <       0.00448995 Ry

     iteration #  2     ecut=    40.00 Ry     beta=0.30
     Davidson diagonalization with overlap
     ethr =  9.35E-06,  avg # of iterations =  2.0

     total cpu time spent up to now is     7287.7 secs

     total energy              =    -302.68258016 Ry
     Harris-Foulkes estimate   =    -302.68302076 Ry
     estimated scf accuracy    <       0.00234736 Ry

     iteration #  3     ecut=    40.00 Ry     beta=0.30
     Davidson diagonalization with overlap
     ethr =  4.89E-06,  avg # of iterations =  1.0

     total cpu time spent up to now is     7336.9 secs

     total energy              =    -302.68235768 Ry
     Harris-Foulkes estimate   =    -302.68261290 Ry
     estimated scf accuracy    <       0.00077076 Ry

     iteration #  4     ecut=    40.00 Ry     beta=0.30
     Davidson diagonalization with overlap
     ethr =  1.61E-06,  avg # of iterations =  2.0

     total cpu time spent up to now is     7386.0 secs

     total energy              =    -302.68241209 Ry
     Harris-Foulkes estimate   =    -302.68240998 Ry
     estimated scf accuracy    <       0.00000741 Ry

     iteration #  5     ecut=    40.00 Ry     beta=0.30
     Davidson diagonalization with overlap
     ethr =  1.54E-08,  avg # of iterations =  2.7

     total cpu time spent up to now is     7445.6 secs

     total energy              =    -302.68241345 Ry
     Harris-Foulkes estimate   =    -302.68241331 Ry
     estimated scf accuracy    <       0.00000260 Ry

     iteration #  6     ecut=    40.00 Ry     beta=0.30
     Davidson diagonalization with overlap
     ethr =  5.42E-09,  avg # of iterations =  2.0

     total cpu time spent up to now is     7497.7 secs

     End of self-consistent calculation

     Number of k-points >= 100: set verbosity='high' to print the bands.

!    total energy              =    -302.68241360 Ry
     Harris-Foulkes estimate   =    -302.68241361 Ry
     estimated scf accuracy    <       0.00000012 Ry

     The total energy is the sum of the following terms:

     one-electron contribution =     -76.48834549 Ry
     hartree contribution      =      54.15821037 Ry
     xc contribution           =     -47.85898689 Ry
     ewald contribution        =    -232.49329159 Ry

     convergence has been achieved in   6 iterations

     Forces acting on atoms (Ry/au):

     atom    1 type  2   force =    -0.00326403   -0.00021055   -0.01139171
     atom    2 type  2   force =     0.00214717    0.00030806   -0.01308662
     atom    3 type  2   force =    -0.00217609   -0.00037563    0.01257081
     atom    4 type  2   force =     0.00266807    0.00024855    0.01087172
     atom    5 type  1   force =    -0.01121052   -0.00003979   -0.00895872
     atom    6 type  1   force =     0.01076464    0.00062434   -0.00773830
     atom    7 type  1   force =    -0.01033698   -0.00061190    0.00938614
     atom    8 type  1   force =     0.01100765    0.00004662    0.00437830
     atom    9 type  1   force =    -0.00109676   -0.00011830   -0.00207615
     atom   10 type  1   force =     0.00059803    0.00031397   -0.00193595
     atom   11 type  1   force =     0.00018814   -0.00031107    0.00524037
     atom   12 type  1   force =     0.00071068    0.00012571    0.00274011

     Total force =     0.036984     Total SCF correction =     0.000268


     entering subroutine stress ...

          total   stress  (Ry/bohr**3)                   (kbar)     P=  396.76
   0.00269773   0.00000032  -0.00000478        396.85      0.05     -0.70
   0.00000032   0.00283167  -0.00000454          0.05    416.55     -0.67
  -0.00000478  -0.00000454   0.00256198         -0.70     -0.67    376.88


     number of scf cycles    =  12
     number of bfgs steps    =  11

     enthalpy old            =    -300.8792395029 Ry
     enthalpy new            =    -300.8829299847 Ry

     CASE: enthalpy_new < enthalpy_old

     new trust radius        =       0.1588122822 bohr
     new conv_thr            =       0.0000001309 Ry

     new unit-cell volume =    655.56478 a.u.^3 (    97.14468 Ang^3 )

CELL_PARAMETERS (alat= 11.28030000)
   0.776401053  -0.000253896   0.001501035
  -0.000143631   0.558504019   0.000068852
   0.001371821   0.000119288   1.053276460

ATOMIC_POSITIONS (crystal)
Ca       0.267219185   0.249297039   0.108618547
Ca       0.232517869  -0.249511984   0.608978153
Ca       0.766608521   0.249482149   0.392024394
Ca      -0.266818834  -0.249277849  -0.107776184
H        0.317646207   0.250406037   0.437855253
H        0.182639299  -0.251210285   0.938055918
H        0.817167473   0.251198626   0.062049557
H       -0.317005858  -0.250390555  -0.435819608
H        0.961641207   0.250408313   0.722474280
H       -0.461301426  -0.250877227   1.222376971
H        1.461283333   0.250876275  -0.226153775
H       -0.961596977  -0.250400539  -0.722683506



     Writing output data file CaH2_ambient.save
     NEW-OLD atomic charge density approx. for the potential
     NEW k-points: (use verbosity='high' to print them)
     extrapolated charge   47.62060, renormalised to   48.00000

     total cpu time spent up to now is     7589.9 secs

     per-process dynamical memory:    23.0 Mb

     Self-consistent Calculation

     iteration #  1     ecut=    40.00 Ry     beta=0.30
     Davidson diagonalization with overlap
     ethr =  1.00E-06,  avg # of iterations =  5.8

     total cpu time spent up to now is     7737.5 secs

     total energy              =    -302.66873623 Ry
     Harris-Foulkes estimate   =    -303.02886066 Ry
     estimated scf accuracy    <       0.01179793 Ry

     iteration #  2     ecut=    40.00 Ry     beta=0.30
     Davidson diagonalization with overlap
     ethr =  2.46E-05,  avg # of iterations =  2.0

     total cpu time spent up to now is     7808.2 secs

     total energy              =    -302.67017978 Ry
     Harris-Foulkes estimate   =    -302.67107464 Ry
     estimated scf accuracy    <       0.00547233 Ry

     iteration #  3     ecut=    40.00 Ry     beta=0.30
     Davidson diagonalization with overlap
     ethr =  1.14E-05,  avg # of iterations =  1.0

     total cpu time spent up to now is     7854.0 secs

     total energy              =    -302.66950648 Ry
     Harris-Foulkes estimate   =    -302.67023152 Ry
     estimated scf accuracy    <       0.00221603 Ry

     iteration #  4     ecut=    40.00 Ry     beta=0.30
     Davidson diagonalization with overlap
     ethr =  4.62E-06,  avg # of iterations =  2.0

     total cpu time spent up to now is     7905.1 secs

     total energy              =    -302.66966057 Ry
     Harris-Foulkes estimate   =    -302.66965434 Ry
     estimated scf accuracy    <       0.00001382 Ry

     iteration #  5     ecut=    40.00 Ry     beta=0.30
     Davidson diagonalization with overlap
     ethr =  2.88E-08,  avg # of iterations =  2.8

     total cpu time spent up to now is     7973.3 secs

     total energy              =    -302.66966482 Ry
     Harris-Foulkes estimate   =    -302.66966435 Ry
     estimated scf accuracy    <       0.00000537 Ry

     iteration #  6     ecut=    40.00 Ry     beta=0.30
     Davidson diagonalization with overlap
     ethr =  1.12E-08,  avg # of iterations =  1.2

     total cpu time spent up to now is     8023.5 secs

     total energy              =    -302.66966492 Ry
     Harris-Foulkes estimate   =    -302.66966502 Ry
     estimated scf accuracy    <       0.00000048 Ry

     iteration #  7     ecut=    40.00 Ry     beta=0.30
     Davidson diagonalization with overlap
     ethr =  1.01E-09,  avg # of iterations =  2.0

     total cpu time spent up to now is     8074.6 secs

     End of self-consistent calculation

     Number of k-points >= 100: set verbosity='high' to print the bands.

!    total energy              =    -302.66966498 Ry
     Harris-Foulkes estimate   =    -302.66966496 Ry
     estimated scf accuracy    <       0.00000010 Ry

     The total energy is the sum of the following terms:

     one-electron contribution =     -75.31482532 Ry
     hartree contribution      =      53.70168739 Ry
     xc contribution           =     -47.85141339 Ry
     ewald contribution        =    -233.20511366 Ry

     convergence has been achieved in   7 iterations

     Forces acting on atoms (Ry/au):

     atom    1 type  2   force =    -0.00504225   -0.00080499   -0.00675504
     atom    2 type  2   force =     0.00586657   -0.00028179   -0.00864912
     atom    3 type  2   force =    -0.00506942    0.00040818    0.00706829
     atom    4 type  2   force =     0.00381898    0.00064107    0.00486310
     atom    5 type  1   force =    -0.01325463    0.00000063   -0.01565970
[...]


     entering subroutine stress ...

          total   stress  (Ry/bohr**3)                   (kbar)     P=  400.14
   0.00272399  -0.00000025   0.00000107        400.71     -0.04      0.16
  -0.00000025   0.00271846   0.00000020         -0.04    399.90      0.03
   0.00000107   0.00000020   0.00271779          0.16      0.03    399.80


     number of scf cycles    =  31
     number of bfgs steps    =  30

     enthalpy old            =    -300.9277851189 Ry
     enthalpy new            =    -300.9277912161 Ry

     CASE: enthalpy_new < enthalpy_old

     new trust radius        =       0.0017352635 bohr
     new conv_thr            =       0.0000000100 Ry

     new unit-cell volume =    641.07898 a.u.^3 (    94.99810 Ang^3 )

CELL_PARAMETERS (alat= 11.28030000)
   0.754290396   0.000044474  -0.000085003
  -0.000035317   0.585394525  -0.000020718
   0.000213298   0.000006675   1.011491735

ATOMIC_POSITIONS (crystal)
Ca       0.250047950   0.249782133   0.082959027
Ca       0.249984044  -0.249793095   0.582945164
Ca       0.749975310   0.249790327   0.417073571
Ca      -0.250001961  -0.249780253  -0.082891906
H        0.250360787   0.250173298   0.416681932
H        0.249511752  -0.250219600   0.916733853
H        0.750453567   0.250224197   0.083358639
H       -0.250418308  -0.250176811  -0.416695170
H        0.999934984   0.250031831   0.749931874
H       -0.499901332  -0.250046775   1.249967612
H        1.499907568   0.250048230  -0.250031613
H       -0.999854361  -0.250033482  -0.750032984



     Writing output data file CaH2_ambient.save
     NEW-OLD atomic charge density approx. for the potential
     NEW k-points: (use verbosity='high' to print them)
     extrapolated charge   48.00342, renormalised to   48.00000

     total cpu time spent up to now is    16835.3 secs

     per-process dynamical memory:    23.0 Mb

     Self-consistent Calculation

     iteration #  1     ecut=    40.00 Ry     beta=0.30
     Davidson diagonalization with overlap
     ethr =  1.00E-06,  avg # of iterations =  2.0

     Threshold (ethr) on eigenvalues was too large:
     Diagonalizing with lowered threshold

     Davidson diagonalization with overlap
     ethr =  3.42E-09,  avg # of iterations =  3.0

     total cpu time spent up to now is    16963.6 secs

     total energy              =    -302.67098172 Ry
     Harris-Foulkes estimate   =    -302.66791587 Ry
     estimated scf accuracy    <       0.00000201 Ry

     iteration #  2     ecut=    40.00 Ry     beta=0.30
     Davidson diagonalization with overlap
     ethr =  4.19E-09,  avg # of iterations =  2.0

     total cpu time spent up to now is    17020.3 secs

     total energy              =    -302.67098164 Ry
     Harris-Foulkes estimate   =    -302.67098193 Ry
     estimated scf accuracy    <       0.00000103 Ry

     iteration #  3     ecut=    40.00 Ry     beta=0.30
     Davidson diagonalization with overlap
     ethr =  2.15E-09,  avg # of iterations =  1.9

     total cpu time spent up to now is    17066.5 secs

     total energy              =    -302.67098156 Ry
     Harris-Foulkes estimate   =    -302.67098168 Ry
     estimated scf accuracy    <       0.00000025 Ry

     iteration #  4     ecut=    40.00 Ry     beta=0.30
     Davidson diagonalization with overlap
     ethr =  5.21E-10,  avg # of iterations =  2.0

     total cpu time spent up to now is    17119.1 secs

     End of self-consistent calculation

     Number of k-points >= 100: set verbosity='high' to print the bands.

!    total energy              =    -302.67098160 Ry
     Harris-Foulkes estimate   =    -302.67098160 Ry
     estimated scf accuracy    <          2.9E-09 Ry

     The total energy is the sum of the following terms:

     one-electron contribution =     -72.14657427 Ry
     hartree contribution      =      52.61638801 Ry
     xc contribution           =     -47.88376652 Ry
     ewald contribution        =    -235.25702882 Ry

     convergence has been achieved in   4 iterations

     Forces acting on atoms (Ry/au):

     atom    1 type  2   force =     0.00018358   -0.00004681    0.00033497
     atom    2 type  2   force =    -0.00021671    0.00004690    0.00045845
     atom    3 type  2   force =     0.00028950   -0.00004616   -0.00039803
     atom    4 type  2   force =    -0.00026004    0.00004950   -0.00059196
     atom    5 type  1   force =    -0.00019927   -0.00002480   -0.00011748
     atom    6 type  1   force =     0.00028284    0.00005852   -0.00023301
     atom    7 type  1   force =    -0.00023613   -0.00006266    0.00007099
     atom    8 type  1   force =     0.00022231    0.00002613    0.00021056
     atom    9 type  1   force =     0.00000569   -0.00000650   -0.00003051
     atom   10 type  1   force =    -0.00003265    0.00001584   -0.00007914
     atom   11 type  1   force =     0.00003580   -0.00001714    0.00019199
     atom   12 type  1   force =    -0.00007493    0.00000717    0.00018318

     Total force =     0.001229     Total SCF correction =     0.000114


     entering subroutine stress ...

          total   stress  (Ry/bohr**3)                   (kbar)     P=  400.03
   0.00272023   0.00000001  -0.00000061        400.16      0.00     -0.09
   0.00000001   0.00271965   0.00000011          0.00    400.07      0.02
  -0.00000061   0.00000011   0.00271819         -0.09      0.02    399.86


     bfgs converged in  32 scf cycles and  31 bfgs steps
     (criteria: energy < 0.10E-03, force < 0.10E-02, cell < 0.50E+00)

     End of BFGS Geometry Optimization

     Final enthalpy =    -300.9277947834 Ry
Begin final coordinates
     new unit-cell volume =    641.07898 a.u.^3 (    94.99810 Ang^3 )

CELL_PARAMETERS (alat= 11.28030000)
   0.754290396   0.000044474  -0.000085003
  -0.000035317   0.585394525  -0.000020718
   0.000213298   0.000006675   1.011491735

ATOMIC_POSITIONS (crystal)
Ca       0.250047950   0.249782133   0.082959027
Ca       0.249984044  -0.249793095   0.582945164
Ca       0.749975310   0.249790327   0.417073571
Ca      -0.250001961  -0.249780253  -0.082891906
H        0.250360787   0.250173298   0.416681932
H        0.249511752  -0.250219600   0.916733853
H        0.750453567   0.250224197   0.083358639
H       -0.250418308  -0.250176811  -0.416695170
H        0.999934984   0.250031831   0.749931874
H       -0.499901332  -0.250046775   1.249967612
H        1.499907568   0.250048230  -0.250031613
H       -0.999854361  -0.250033482  -0.750032984
End final coordinates



     A final scf calculation at the relaxed structure.
     The G-vectors are recalculated for the final unit cell
     Results may differ from those at the preceding step.

     G-vector sticks info
     --------------------
     sticks:   dense  smooth     PW     G-vecs:    dense   smooth      PW
     Sum         717     717    213                21941    21941    3541



     bravais-lattice index     =            8
     lattice parameter (alat)  =      11.2803  a.u.
     unit-cell volume          =     641.0790 (a.u.)^3
     number of atoms/cell      =           12
     number of atomic types    =            2
     number of electrons       =        48.00
     number of Kohn-Sham states=           24
     kinetic-energy cutoff     =      40.0000  Ry
     charge density cutoff     =     160.0000  Ry
     convergence threshold     =      1.0E-08
     mixing beta               =       0.3000
     number of iterations used =           16  local-TF  mixing
     Exchange-correlation      = PBE ( 1 4 3 4 0)
     EXX-fraction              =        0.00

     celldm(1)=  11.280300  celldm(2)=   0.604300  celldm(3)=   1.146000
     celldm(4)=   0.000000  celldm(5)=   0.000000  celldm(6)=   0.000000

     crystal axes: (cart. coord. in units of alat)
               a(1) = (   0.754290   0.000044  -0.000085 )  
               a(2) = (  -0.000035   0.585395  -0.000021 )  
               a(3) = (   0.000213   0.000007   1.011492 )  

     reciprocal axes: (cart. coord. in units 2 pi/alat)
               b(1) = (  1.325749  0.000080 -0.000280 )  
               b(2) = ( -0.000101  1.708250 -0.000011 )  
               b(3) = (  0.000111  0.000035  0.988639 )  


     PseudoPot. # 1 for H  read from file:
     /home/ilia/espresso/pseudo/H.pbe-sp-mt.ncpp
     MD5 check sum: 7a641936b52ccecd26bd1ad87cca5aed
     Pseudo is Norm-conserving, Zval =  1.0
     Generated by old ld1 code (numerical format)
     Using radial grid of 1076 points,  0 beta functions with: 

     PseudoPot. # 2 for Ca read from file:
     /home/ilia/espresso/pseudo/Ca.pbe-sp-mt_ion2.ncpp
     MD5 check sum: 4bcd670d05521f7b178fdf0a334578ab
     Pseudo is Norm-conserving, Zval = 10.0
     Generated by old ld1 code (numerical format)
     Using radial grid of 1153 points,  1 beta functions with: 
                l(1) =   1

     atomic species   valence    mass     pseudopotential
        H              1.00     1.00700     H ( 1.00)
        Ca            10.00    40.07800     Ca( 1.00)

     No symmetry found
          (note:  1 additional sym.ops. were found but ignored
           their fractional translations are incommensurate with FFT grid)


   Cartesian axes

     site n.     atom                  positions (alat units)
         1           Ca  tau(   1) = (   0.1886176   0.1462328   0.0838859  )
         2           Ca  tau(   2) = (   0.1886937  -0.1462125   0.5896281  )
         3           Ca  tau(   3) = (   0.5657793   0.1462620   0.4217975  )
         4           Ca  tau(   4) = (  -0.1885829  -0.1462317  -0.0838181  )
         5           H   tau(   5) = (   0.1889248   0.1464640   0.4214439  )
         6           H   tau(   6) = (   0.1884087  -0.1464600   0.9272527  )
         7           H   tau(   7) = (   0.5660689   0.1465138   0.0842476  )
         8           H   tau(   8) = (  -0.1889682  -0.1464661  -0.4214573  )
         9           H   tau(   9) = (   0.7543925   0.1464167   0.7584597  )
        10           H   tau(  10) = (  -0.3767953  -0.1463899   1.2643796  )
        11           H   tau(  11) = (   1.1313037   0.1464419  -0.2530376  )
        12           H   tau(  12) = (  -0.7543317  -0.1464177  -0.7585620  )

     number of k points=   108

     Number of k-points >= 100: set verbosity='high' to print them.

     Dense  grid:    21941 G-vectors     FFT dimensions: (  36,  27,  45)

     Largest allocated arrays     est. size (Mb)     dimensions
        Kohn-Sham Wavefunctions         1.01 Mb     (   2756,   24)
        NL pseudopotentials             0.50 Mb     (   2756,   12)
        Each V/rho on FFT grid          0.67 Mb     (  43740)
        Each G-vector array             0.17 Mb     (  21941)
        G-vector shells                 0.08 Mb     (  10971)
     Largest temporary arrays     est. size (Mb)     dimensions
        Auxiliary wavefunctions         4.04 Mb     (   2756,   96)
        Each subspace H/S matrix        0.14 Mb     (  96,  96)
        Each <psi_i|beta_j> matrix      0.00 Mb     (     12,   24)
        Arrays for rho mixing          10.68 Mb     (  43740,  16)

     Initial potential from superposition of free atoms

     starting charge   39.99992, renormalised to   48.00000
     Starting wfc are   24 randomized atomic wfcs

     Writing output data file CaH2_ambient.save

     total cpu time spent up to now is    17193.4 secs

     per-process dynamical memory:    16.3 Mb

     Self-consistent Calculation

     iteration #  1     ecut=    40.00 Ry     beta=0.30
     Davidson diagonalization with overlap
     ethr =  1.00E-06,  avg # of iterations =  5.0

     total cpu time spent up to now is    17265.8 secs

     total energy              =    -305.70411233 Ry
     Harris-Foulkes estimate   =    -307.96635147 Ry
     estimated scf accuracy    <      10.91104120 Ry

     iteration #  2     ecut=    40.00 Ry     beta=0.30
     Davidson diagonalization with overlap
     ethr =  1.00E-02,  avg # of iterations =  1.0

     total cpu time spent up to now is    17289.5 secs

     total energy              =    -301.40015166 Ry
     Harris-Foulkes estimate   =    -305.82929687 Ry
     estimated scf accuracy    <       6.46383359 Ry

     iteration #  3     ecut=    40.00 Ry     beta=0.30
     Davidson diagonalization with overlap
     ethr =  1.00E-02,  avg # of iterations =  2.0

     total cpu time spent up to now is    17325.3 secs

     total energy              =    -302.61877915 Ry
     Harris-Foulkes estimate   =    -302.62338003 Ry
     estimated scf accuracy    <       0.19602345 Ry

     iteration #  4     ecut=    40.00 Ry     beta=0.30
     Davidson diagonalization with overlap
     ethr =  4.08E-04,  avg # of iterations =  1.2

     total cpu time spent up to now is    17347.8 secs

     total energy              =    -302.62991635 Ry
     Harris-Foulkes estimate   =    -302.62273980 Ry
     estimated scf accuracy    <       0.12195117 Ry

     iteration #  5     ecut=    40.00 Ry     beta=0.30
     Davidson diagonalization with overlap
     ethr =  2.54E-04,  avg # of iterations =  2.0

     total cpu time spent up to now is    17374.2 secs

     total energy              =    -302.63859051 Ry
     Harris-Foulkes estimate   =    -302.63868141 Ry
     estimated scf accuracy    <       0.00291088 Ry

     iteration #  6     ecut=    40.00 Ry     beta=0.30
     Davidson diagonalization with overlap
     ethr =  6.06E-06,  avg # of iterations =  2.1

     total cpu time spent up to now is    17400.0 secs

     total energy              =    -302.63899331 Ry
     Harris-Foulkes estimate   =    -302.63877568 Ry
     estimated scf accuracy    <       0.00150560 Ry

     iteration #  7     ecut=    40.00 Ry     beta=0.30
     Davidson diagonalization with overlap
     ethr =  3.14E-06,  avg # of iterations =  2.0

     total cpu time spent up to now is    17425.3 secs

     total energy              =    -302.63884575 Ry
     Harris-Foulkes estimate   =    -302.63908196 Ry
     estimated scf accuracy    <       0.00035243 Ry

     iteration #  8     ecut=    40.00 Ry     beta=0.30
     Davidson diagonalization with overlap
     ethr =  7.34E-07,  avg # of iterations =  2.0

     total cpu time spent up to now is    17459.4 secs

     total energy              =    -302.63890663 Ry
     Harris-Foulkes estimate   =    -302.63890334 Ry
     estimated scf accuracy    <       0.00000500 Ry

     iteration #  9     ecut=    40.00 Ry     beta=0.30
     Davidson diagonalization with overlap
     ethr =  1.04E-08,  avg # of iterations =  3.0

     total cpu time spent up to now is    17497.7 secs

     total energy              =    -302.63890208 Ry
     Harris-Foulkes estimate   =    -302.63891214 Ry
     estimated scf accuracy    <       0.00001957 Ry

     iteration # 10     ecut=    40.00 Ry     beta=0.30
     Davidson diagonalization with overlap
     ethr =  1.04E-08,  avg # of iterations =  2.0

     total cpu time spent up to now is    17533.2 secs

     total energy              =    -302.63890499 Ry
     Harris-Foulkes estimate   =    -302.63890498 Ry
     estimated scf accuracy    <       0.00000011 Ry

     iteration # 11     ecut=    40.00 Ry     beta=0.30
     Davidson diagonalization with overlap
     ethr =  2.29E-10,  avg # of iterations =  2.0

     total cpu time spent up to now is    17557.8 secs

     total energy              =    -302.63890496 Ry
     Harris-Foulkes estimate   =    -302.63890499 Ry
     estimated scf accuracy    <       0.00000010 Ry

     iteration # 12     ecut=    40.00 Ry     beta=0.30
     Davidson diagonalization with overlap
     ethr =  2.02E-10,  avg # of iterations =  2.0

     total cpu time spent up to now is    17586.6 secs

     total energy              =    -302.63890497 Ry
     Harris-Foulkes estimate   =    -302.63890497 Ry
     estimated scf accuracy    <       0.00000001 Ry

     iteration # 13     ecut=    40.00 Ry     beta=0.30
     Davidson diagonalization with overlap
     ethr =  2.52E-11,  avg # of iterations =  2.0

     total cpu time spent up to now is    17616.1 secs

     End of self-consistent calculation

     Number of k-points >= 100: set verbosity='high' to print the bands.

!    total energy              =    -302.63890497 Ry
     Harris-Foulkes estimate   =    -302.63890497 Ry
     estimated scf accuracy    <          4.2E-10 Ry

     The total energy is the sum of the following terms:

     one-electron contribution =     -72.10523980 Ry
     hartree contribution      =      52.59417162 Ry
     xc contribution           =     -47.87080796 Ry
     ewald contribution        =    -235.25702883 Ry

     convergence has been achieved in  13 iterations

     Forces acting on atoms (Ry/au):

     atom    1 type  2   force =     0.00012163   -0.00039708   -0.00059781
     atom    2 type  2   force =    -0.00019947    0.00055465    0.00144978
     atom    3 type  2   force =     0.00026472   -0.00055552   -0.00138912
     atom    4 type  2   force =    -0.00019172    0.00038933    0.00033999
     atom    5 type  1   force =    -0.00019972   -0.00002106   -0.00012977
     atom    6 type  1   force =     0.00028235    0.00006017   -0.00022277
     atom    7 type  1   force =    -0.00023560   -0.00006131    0.00006081
     atom    8 type  1   force =     0.00022311    0.00002541    0.00022351
     atom    9 type  1   force =     0.00000522   -0.00000522   -0.00003602
     atom   10 type  1   force =    -0.00003260    0.00001726   -0.00007587
     atom   11 type  1   force =     0.00003567   -0.00001555    0.00018881
     atom   12 type  1   force =    -0.00007357    0.00000892    0.00018848

     Total force =     0.002456     Total SCF correction =     0.000003


     entering subroutine stress ...

          total   stress  (Ry/bohr**3)                   (kbar)     P=  399.45
   0.00273554   0.00000001  -0.00000061        402.41      0.00     -0.09
   0.00000001   0.00269682   0.00000027          0.00    396.72      0.04
  -0.00000061   0.00000027   0.00271382         -0.09      0.04    399.22


     Writing output data file CaH2_ambient.save

     init_run     :     77.52s CPU     80.16s WALL (       2 calls)
     electrons    :  13979.36s CPU  14651.21s WALL (      33 calls)
     update_pot   :   1210.80s CPU   1227.75s WALL (      31 calls)
     forces       :    494.99s CPU    503.01s WALL (      33 calls)
     stress       :   1149.35s CPU   1163.15s WALL (      33 calls)

     Called by init_run:
     wfcinit      :     40.36s CPU     41.77s WALL (       2 calls)
     potinit      :     17.43s CPU     17.83s WALL (       2 calls)

     Called by electrons:
     c_bands      :  12249.59s CPU  12858.68s WALL (     223 calls)
     sum_band     :   1681.52s CPU   1739.06s WALL (     223 calls)
     v_of_rho     :     27.06s CPU     27.87s WALL (     251 calls)
     mix_rho      :     23.36s CPU     25.54s WALL (     223 calls)

     Called by c_bands:
     init_us_2    :    183.59s CPU    195.93s WALL (   55512 calls)
     cegterg      :  12157.56s CPU  12507.40s WALL (   24084 calls)

     Called by *egterg:
     h_psi        :   7525.77s CPU   7660.36s WALL (   78395 calls)
     g_psi        :     66.47s CPU     67.61s WALL (   54095 calls)
     cdiaghg      :    182.06s CPU    185.18s WALL (   74291 calls)

     Called by h_psi:
     add_vuspsi   :    240.85s CPU    244.79s WALL (   78395 calls)

     General routines
     calbec       :    267.09s CPU    271.26s WALL (   85523 calls)
     fft          :      8.03s CPU      8.30s WALL (    3033 calls)
     ffts         :      9.28s CPU      9.46s WALL (    3541 calls)
     fftw         :   6929.90s CPU   7031.57s WALL ( 3744424 calls)
     davcio       :      9.37s CPU    293.03s WALL (   79596 calls)


     PWSCF        :     4h42m CPU        4h53m WALL


   This run was terminated on:  13:14:46   4Jun2014            

=------------------------------------------------------------------------------=
   JOB DONE.
=------------------------------------------------------------------------------=
