
     Program PWSCF v.5.0.2 (svn rev. 9392) starts on 13Jun2014 at  8:13:21 

     This program is part of the open-source Quantum ESPRESSO suite
     for quantum simulation of materials; please cite
         "P. Giannozzi et al., J. Phys.:Condens. Matter 21 395502 (2009);
          URL http://www.quantum-espresso.org", 
     in publications or presentations arising from this work. More details at
     http://www.quantum-espresso.org/quote.php

     Serial version

     Current dimensions of program PWSCF are:
     Max number of different atomic species (ntypx) = 10
     Max number of k-points (npk) =  40000
     Max angular momentum in pseudopotentials (lmaxx) =  3
     Waiting for input...
     Reading input from standard input

     G-vector sticks info
     --------------------
     sticks:   dense  smooth     PW     G-vecs:    dense   smooth      PW
     Sum        2573    2573    705               144657   144657   20749



     bravais-lattice index     =            8
     lattice parameter (alat)  =      10.5580  a.u.
     unit-cell volume          =     815.0461 (a.u.)^3
     number of atoms/cell      =           12
     number of atomic types    =            2
     number of electrons       =        48.00
     number of Kohn-Sham states=           24
     kinetic-energy cutoff     =     120.0000  Ry
     charge density cutoff     =     480.0000  Ry
     convergence threshold     =      1.0E-06
     mixing beta               =       0.3000
     number of iterations used =           16  local-TF  mixing
     Exchange-correlation      = BLYP ( 1 3 1 3 0)
     EXX-fraction              =        0.00
     nstep                     =           50


     celldm(1)=  10.558000  celldm(2)=   0.604300  celldm(3)=   1.146000
     celldm(4)=   0.000000  celldm(5)=   0.000000  celldm(6)=   0.000000

     crystal axes: (cart. coord. in units of alat)
               a(1) = (   1.000000   0.000000   0.000000 )  
               a(2) = (   0.000000   0.604300   0.000000 )  
               a(3) = (   0.000000   0.000000   1.146000 )  

     reciprocal axes: (cart. coord. in units 2 pi/alat)
               b(1) = (  1.000000  0.000000  0.000000 )  
               b(2) = (  0.000000  1.654807  0.000000 )  
               b(3) = (  0.000000  0.000000  0.872600 )  


     PseudoPot. # 1 for H  read from file:
     /home/ilia/espresso/pseudo/H.blyp-vbc.UPF
     MD5 check sum: 64d25ad537c4b939b17faee1147b797b
     Pseudo is Norm-conserving, Zval =  1.0
     Generated by new atomic code, or converted to UPF format
     Using radial grid of  243 points,  0 beta functions with: 

     PseudoPot. # 2 for Ca read from file:
     /home/ilia/espresso/pseudo/Ca.blyp-sp-hgh.UPF
     MD5 check sum: 357a6b692114ea82b84239caae8ecfc0
     Pseudo is Norm-conserving, Zval = 10.0
     Generated in analytical, separable form
     Using radial grid of 1169 points,  5 beta functions with: 
                l(1) =   0
                l(2) =   0
                l(3) =   1
                l(4) =   1
                l(5) =   2

     atomic species   valence    mass     pseudopotential
        H              1.00     1.00700     H ( 1.00)
        Ca            10.00    40.07800     Ca( 1.00)

     No symmetry found
          (note:  1 additional sym.ops. were found but ignored
           their fractional translations are incommensurate with FFT grid)


   Cartesian axes

     site n.     atom                  positions (alat units)
         1           Ca  tau(   1) = (   0.2400000   0.1510750   0.1259454  )
         2           Ca  tau(   2) = (   0.2600000  -0.1510750   0.6989454  )
         3           Ca  tau(   3) = (   0.7400000   0.1510750   0.4470546  )
         4           Ca  tau(   4) = (  -0.2400000  -0.1510750  -0.1259454  )
         5           H   tau(   5) = (   0.3557000   0.1510750   0.4887690  )
         6           H   tau(   6) = (   0.1443000  -0.1510750   1.0617690  )
         7           H   tau(   7) = (   0.8557000   0.1510750   0.0842310  )
         8           H   tau(   8) = (  -0.3557000  -0.1510750  -0.4922070  )
         9           H   tau(   9) = (   0.9754000   0.1510750   0.7752690  )
        10           H   tau(  10) = (  -0.4754000  -0.1510750   1.3482690  )
        11           H   tau(  11) = (   1.4754000   0.1510750  -0.1988310  )
        12           H   tau(  12) = (  -0.9754000  -0.1510750  -0.7752690  )

     number of k points=    48
                       cart. coord. in units 2pi/alat
        k(    1) = (   0.1250000   0.1379006   0.1090750), wk =   0.0416667
        k(    2) = (   0.1250000   0.1379006   0.3272251), wk =   0.0416667
        k(    3) = (   0.1250000   0.4137018   0.1090750), wk =   0.0416667
        k(    4) = (   0.1250000   0.4137018   0.3272251), wk =   0.0416667
        k(    5) = (   0.1250000   0.6895030   0.1090750), wk =   0.0416667
        k(    6) = (   0.1250000   0.6895030   0.3272251), wk =   0.0416667
        k(    7) = (   0.3750000   0.1379006   0.1090750), wk =   0.0416667
        k(    8) = (   0.3750000   0.1379006   0.3272251), wk =   0.0416667
        k(    9) = (   0.3750000   0.4137018   0.1090750), wk =   0.0416667
        k(   10) = (   0.3750000   0.4137018   0.3272251), wk =   0.0416667
        k(   11) = (   0.3750000   0.6895030   0.1090750), wk =   0.0416667
        k(   12) = (   0.3750000   0.6895030   0.3272251), wk =   0.0416667
        k(   13) = (  -0.1250000  -0.1379006   0.1090750), wk =   0.0416667
        k(   14) = (  -0.1250000   0.1379006  -0.1090750), wk =   0.0416667
        k(   15) = (   0.1250000  -0.1379006  -0.1090750), wk =   0.0416667
        k(   16) = (  -0.1250000  -0.1379006   0.3272251), wk =   0.0416667
        k(   17) = (  -0.1250000   0.1379006  -0.3272251), wk =   0.0416667
        k(   18) = (   0.1250000  -0.1379006  -0.3272251), wk =   0.0416667
        k(   19) = (  -0.1250000  -0.4137018   0.1090750), wk =   0.0416667
        k(   20) = (  -0.1250000   0.4137018  -0.1090750), wk =   0.0416667
        k(   21) = (   0.1250000  -0.4137018  -0.1090750), wk =   0.0416667
        k(   22) = (  -0.1250000  -0.4137018   0.3272251), wk =   0.0416667
        k(   23) = (  -0.1250000   0.4137018  -0.3272251), wk =   0.0416667
        k(   24) = (   0.1250000  -0.4137018  -0.3272251), wk =   0.0416667
        k(   25) = (  -0.1250000  -0.6895030   0.1090750), wk =   0.0416667
        k(   26) = (  -0.1250000   0.6895030  -0.1090750), wk =   0.0416667
        k(   27) = (   0.1250000  -0.6895030  -0.1090750), wk =   0.0416667
        k(   28) = (  -0.1250000  -0.6895030   0.3272251), wk =   0.0416667
        k(   29) = (  -0.1250000   0.6895030  -0.3272251), wk =   0.0416667
        k(   30) = (   0.1250000  -0.6895030  -0.3272251), wk =   0.0416667
        k(   31) = (  -0.3750000  -0.1379006   0.1090750), wk =   0.0416667
        k(   32) = (  -0.3750000   0.1379006  -0.1090750), wk =   0.0416667
        k(   33) = (   0.3750000  -0.1379006  -0.1090750), wk =   0.0416667
        k(   34) = (  -0.3750000  -0.1379006   0.3272251), wk =   0.0416667
        k(   35) = (  -0.3750000   0.1379006  -0.3272251), wk =   0.0416667
        k(   36) = (   0.3750000  -0.1379006  -0.3272251), wk =   0.0416667
        k(   37) = (  -0.3750000  -0.4137018   0.1090750), wk =   0.0416667
        k(   38) = (  -0.3750000   0.4137018  -0.1090750), wk =   0.0416667
        k(   39) = (   0.3750000  -0.4137018  -0.1090750), wk =   0.0416667
        k(   40) = (  -0.3750000  -0.4137018   0.3272251), wk =   0.0416667
        k(   41) = (  -0.3750000   0.4137018  -0.3272251), wk =   0.0416667
        k(   42) = (   0.3750000  -0.4137018  -0.3272251), wk =   0.0416667
        k(   43) = (  -0.3750000  -0.6895030   0.1090750), wk =   0.0416667
        k(   44) = (  -0.3750000   0.6895030  -0.1090750), wk =   0.0416667
        k(   45) = (   0.3750000  -0.6895030  -0.1090750), wk =   0.0416667
        k(   46) = (  -0.3750000  -0.6895030   0.3272251), wk =   0.0416667
        k(   47) = (  -0.3750000   0.6895030  -0.3272251), wk =   0.0416667
        k(   48) = (   0.3750000  -0.6895030  -0.3272251), wk =   0.0416667

     Dense  grid:   144657 G-vectors     FFT dimensions: (  75,  45,  90)

     Largest allocated arrays     est. size (Mb)     dimensions
        Kohn-Sham Wavefunctions         6.64 Mb     (  18122,   24)
        NL pseudopotentials            14.38 Mb     (  18122,   52)
        Each V/rho on FFT grid          4.63 Mb     ( 303750)
        Each G-vector array             1.10 Mb     ( 144657)
        G-vector shells                 1.10 Mb     ( 144657)
     Largest temporary arrays     est. size (Mb)     dimensions
        Auxiliary wavefunctions        26.55 Mb     (  18122,   96)
        Each subspace H/S matrix        0.14 Mb     (  96,  96)
        Each <psi_i|beta_j> matrix      0.02 Mb     (     52,   24)
        Arrays for rho mixing          74.16 Mb     ( 303750,  16)

     Initial potential from superposition of free atoms

     starting charge   47.97855, renormalised to   48.00000
     Starting wfc are   60 randomized atomic wfcs

     total cpu time spent up to now is      244.0 secs

     per-process dynamical memory:    76.4 Mb

     Self-consistent Calculation

     iteration #  1     ecut=   120.00 Ry     beta=0.30
     Davidson diagonalization with overlap
     ethr =  1.00E-02,  avg # of iterations =  2.0

     total cpu time spent up to now is      397.8 secs

     total energy              =    -303.21088493 Ry
     Harris-Foulkes estimate   =    -303.27032374 Ry
     estimated scf accuracy    <       0.53593020 Ry

     iteration #  2     ecut=   120.00 Ry     beta=0.30
     Davidson diagonalization with overlap
     ethr =  1.12E-03,  avg # of iterations =  1.0

     total cpu time spent up to now is      536.6 secs

     total energy              =    -303.09110740 Ry
     Harris-Foulkes estimate   =    -303.21945400 Ry
     estimated scf accuracy    <       0.33454523 Ry

     iteration #  3     ecut=   120.00 Ry     beta=0.30
     Davidson diagonalization with overlap
     ethr =  6.97E-04,  avg # of iterations =  2.0

     total cpu time spent up to now is      694.2 secs

     total energy              =    -303.13081636 Ry
     Harris-Foulkes estimate   =    -303.13152676 Ry
     estimated scf accuracy    <       0.00935568 Ry

     iteration #  4     ecut=   120.00 Ry     beta=0.30
     Davidson diagonalization with overlap
     ethr =  1.95E-05,  avg # of iterations =  3.1

     total cpu time spent up to now is      862.3 secs

     total energy              =    -303.13373265 Ry
     Harris-Foulkes estimate   =    -303.13322571 Ry
     estimated scf accuracy    <       0.00268670 Ry

     iteration #  5     ecut=   120.00 Ry     beta=0.30
     Davidson diagonalization with overlap
     ethr =  5.60E-06,  avg # of iterations =  3.7

     total cpu time spent up to now is     1051.5 secs

     total energy              =    -303.13435224 Ry
     Harris-Foulkes estimate   =    -303.13443123 Ry
     estimated scf accuracy    <       0.00023374 Ry

     iteration #  6     ecut=   120.00 Ry     beta=0.30
     Davidson diagonalization with overlap
     ethr =  4.87E-07,  avg # of iterations =  3.1

     total cpu time spent up to now is     1240.3 secs

     total energy              =    -303.13443130 Ry
     Harris-Foulkes estimate   =    -303.13441886 Ry
     estimated scf accuracy    <       0.00002098 Ry

     iteration #  7     ecut=   120.00 Ry     beta=0.30
     Davidson diagonalization with overlap
     ethr =  4.37E-08,  avg # of iterations =  3.1

     total cpu time spent up to now is     1426.2 secs

     total energy              =    -303.13443554 Ry
     Harris-Foulkes estimate   =    -303.13443563 Ry
     estimated scf accuracy    <       0.00000178 Ry

     iteration #  8     ecut=   120.00 Ry     beta=0.30
     Davidson diagonalization with overlap
     ethr =  3.70E-09,  avg # of iterations =  3.1

     total cpu time spent up to now is     1645.5 secs

     End of self-consistent calculation

          k = 0.1250 0.1379 0.1091 ( 18078 PWs)   bands (ev):

   -33.1578 -33.1077 -33.0935 -33.0770 -13.8691 -13.7675 -13.7210 -13.5900
   -13.5139 -13.4786 -13.4723 -13.4122 -13.3941 -13.3744 -13.3625 -13.3587
     1.0187   3.4034   3.8456   4.4213   4.8345   5.0437   5.2978   6.0954

          k = 0.1250 0.1379 0.3272 ( 18096 PWs)   bands (ev):

   -33.1476 -33.1218 -33.0923 -33.0746 -13.8250 -13.7626 -13.6523 -13.6071
   -13.5522 -13.5085 -13.4567 -13.4301 -13.4131 -13.3785 -13.3739 -13.3621
     1.5066   2.3704   4.1111   4.5054   4.9966   5.0220   5.5935   6.0228

          k = 0.1250 0.4137 0.1091 ( 18089 PWs)   bands (ev):

   -33.1374 -33.0949 -33.0858 -33.0646 -13.8146 -13.7089 -13.7051 -13.6204
   -13.5873 -13.5645 -13.5439 -13.5034 -13.4902 -13.4704 -13.3853 -13.3722
     1.7741   3.7796   4.1315   4.5174   4.8400   4.9371   5.1505   5.6605

          k = 0.1250 0.4137 0.3272 ( 18122 PWs)   bands (ev):

   -33.1305 -33.1058 -33.0834 -33.0633 -13.7839 -13.7397 -13.6695 -13.6339
   -13.6113 -13.5818 -13.5453 -13.5067 -13.4690 -13.4341 -13.4086 -13.3838
     2.1938   2.9339   4.2953   4.5679   4.8857   4.9100   5.3328   5.5943

          k = 0.1250 0.6895 0.1091 ( 18108 PWs)   bands (ev):

   -33.1143 -33.0846 -33.0782 -33.0520 -13.7933 -13.7733 -13.7401 -13.7205
   -13.6528 -13.6296 -13.5939 -13.5308 -13.4976 -13.4426 -13.4281 -13.3958
     3.0272   4.2901   4.3470   4.4640   4.6322   4.7084   4.8122   5.0202

          k = 0.1250 0.6895 0.3272 ( 18096 PWs)   bands (ev):

   -33.1128 -33.0875 -33.0768 -33.0519 -13.8293 -13.8151 -13.7224 -13.7059
   -13.6696 -13.6473 -13.5615 -13.5330 -13.4564 -13.4332 -13.4155 -13.4043
     3.3141   3.8125   4.4583   4.5304   4.6180   4.6608   4.7619   4.8524

          k = 0.3750 0.1379 0.1091 ( 18069 PWs)   bands (ev):

   -33.1401 -33.1174 -33.0932 -33.0854 -13.8396 -13.8233 -13.7315 -13.5561
   -13.4792 -13.4609 -13.4458 -13.4255 -13.4157 -13.3913 -13.3799 -13.3707
     1.6364   2.6776   3.7846   4.3525   4.6853   5.0508   5.7315   6.0801

          k = 0.3750 0.1379 0.3272 ( 18069 PWs)   bands (ev):

   -33.1333 -33.1184 -33.0982 -33.0863 -13.7955 -13.7568 -13.7277 -13.6260
   -13.5018 -13.4866 -13.4408 -13.4199 -13.4096 -13.3989 -13.3867 -13.3764
     2.0740   2.8074   3.1066   3.6834   5.2965   5.5383   5.6419   5.9487

          k = 0.3750 0.4137 0.1091 ( 18074 PWs)   bands (ev):

   -33.1224 -33.1031 -33.0836 -33.0735 -13.7907 -13.7743 -13.7266 -13.6259
   -13.5973 -13.5526 -13.5119 -13.4889 -13.4586 -13.4277 -13.4108 -13.4034
     2.3024   3.1773   4.1141   4.5452   4.7642   5.0478   5.3559   5.5605

          k = 0.3750 0.4137 0.3272 ( 18089 PWs)   bands (ev):

   -33.1181 -33.1039 -33.0868 -33.0740 -13.7815 -13.7550 -13.7336 -13.6761
   -13.5561 -13.5356 -13.5030 -13.4861 -13.4808 -13.4534 -13.4069 -13.4015
     2.6743   3.2899   3.5361   3.9980   5.1277   5.2571   5.3544   5.5257

          k = 0.3750 0.6895 0.1091 ( 18120 PWs)   bands (ev):

   -33.1036 -33.0886 -33.0754 -33.0615 -13.8053 -13.7909 -13.7757 -13.7566
   -13.6365 -13.5945 -13.5752 -13.5488 -13.4599 -13.4317 -13.4224 -13.4012
     3.3823   3.9209   4.4566   4.5541   4.6444   4.7196   4.8828   4.9809

          k = 0.3750 0.6895 0.3272 ( 18101 PWs)   bands (ev):

   -33.1027 -33.0888 -33.0759 -33.0616 -13.8394 -13.8298 -13.7888 -13.7772
   -13.5883 -13.5664 -13.5439 -13.5303 -13.4606 -13.4405 -13.4207 -13.4076
     3.6191   3.9791   4.1641   4.3682   4.6479   4.7039   4.8605   4.9067

          k =-0.1250-0.1379 0.1091 ( 18078 PWs)   bands (ev):

   -33.1578 -33.1077 -33.0937 -33.0770 -13.8691 -13.7675 -13.7211 -13.5907
   -13.5133 -13.4784 -13.4724 -13.4118 -13.3937 -13.3745 -13.3622 -13.3597
     1.0190   3.3994   3.8502   4.4197   4.8400   5.0363   5.3013   6.0943

          k =-0.1250 0.1379-0.1091 ( 18078 PWs)   bands (ev):

   -33.1578 -33.1077 -33.0935 -33.0770 -13.8691 -13.7675 -13.7210 -13.5900
   -13.5139 -13.4787 -13.4722 -13.4122 -13.3941 -13.3744 -13.3626 -13.3587
     1.0187   3.4034   3.8456   4.4213   4.8345   5.0438   5.2978   6.0954

          k = 0.1250-0.1379-0.1091 ( 18078 PWs)   bands (ev):

   -33.1578 -33.1077 -33.0937 -33.0770 -13.8691 -13.7675 -13.7211 -13.5907
   -13.5133 -13.4786 -13.4723 -13.4118 -13.3938 -13.3745 -13.3621 -13.3598
     1.0190   3.3994   3.8502   4.4197   4.8400   5.0363   5.3013   6.0943

          k =-0.1250-0.1379 0.3272 ( 18096 PWs)   bands (ev):

   -33.1476 -33.1218 -33.0924 -33.0745 -13.8249 -13.7626 -13.6527 -13.6075
   -13.5519 -13.5080 -13.4567 -13.4294 -13.4131 -13.3791 -13.3742 -13.3621
     1.5075   2.3686   4.1147   4.5001   5.0026   5.0191   5.5949   6.0206

          k =-0.1250 0.1379-0.3272 ( 18096 PWs)   bands (ev):

   -33.1476 -33.1218 -33.0923 -33.0746 -13.8250 -13.7626 -13.6523 -13.6071
   -13.5522 -13.5084 -13.4567 -13.4301 -13.4131 -13.3785 -13.3739 -13.3621
     1.5066   2.3703   4.1111   4.5054   4.9966   5.0220   5.5935   6.0228

          k = 0.1250-0.1379-0.3272 ( 18096 PWs)   bands (ev):

   -33.1476 -33.1218 -33.0924 -33.0745 -13.8249 -13.7625 -13.6527 -13.6075
   -13.5520 -13.5081 -13.4567 -13.4294 -13.4130 -13.3791 -13.3742 -13.3620
     1.5075   2.3686   4.1147   4.5001   5.0026   5.0191   5.5949   6.0206

          k =-0.1250-0.4137 0.1091 ( 18089 PWs)   bands (ev):

   -33.1374 -33.0948 -33.0859 -33.0646 -13.8146 -13.7082 -13.7057 -13.6206
   -13.5874 -13.5641 -13.5442 -13.5039 -13.4901 -13.4697 -13.3847 -13.3730
     1.7743   3.7776   4.1357   4.5132   4.8435   4.9338   5.1522   5.6603

          k =-0.1250 0.4137-0.1091 ( 18089 PWs)   bands (ev):

   -33.1374 -33.0949 -33.0858 -33.0646 -13.8146 -13.7089 -13.7051 -13.6203
   -13.5873 -13.5644 -13.5439 -13.5034 -13.4903 -13.4704 -13.3854 -13.3722
     1.7741   3.7795   4.1315   4.5174   4.8400   4.9371   5.1505   5.6605

          k = 0.1250-0.4137-0.1091 ( 18089 PWs)   bands (ev):

   -33.1374 -33.0948 -33.0859 -33.0646 -13.8146 -13.7082 -13.7056 -13.6206
   -13.5875 -13.5641 -13.5442 -13.5039 -13.4901 -13.4696 -13.3846 -13.3731
     1.7743   3.7776   4.1357   4.5132   4.8435   4.9338   5.1522   5.6603

          k =-0.1250-0.4137 0.3272 ( 18122 PWs)   bands (ev):

   -33.1305 -33.1058 -33.0835 -33.0632 -13.7839 -13.7396 -13.6699 -13.6337
   -13.6116 -13.5816 -13.5452 -13.5067 -13.4697 -13.4329 -13.4080 -13.3849
     2.1943   2.9330   4.3000   4.5601   4.8900   4.9090   5.3334   5.5938

          k =-0.1250 0.4137-0.3272 ( 18122 PWs)   bands (ev):

   -33.1305 -33.1058 -33.0834 -33.0633 -13.7839 -13.7397 -13.6696 -13.6339
   -13.6112 -13.5817 -13.5452 -13.5068 -13.4689 -13.4340 -13.4087 -13.3838
     2.1938   2.9339   4.2953   4.5679   4.8857   4.9100   5.3328   5.5943

          k = 0.1250-0.4137-0.3272 ( 18122 PWs)   bands (ev):

   -33.1305 -33.1058 -33.0835 -33.0632 -13.7839 -13.7395 -13.6697 -13.6338
   -13.6115 -13.5817 -13.5453 -13.5066 -13.4698 -13.4329 -13.4079 -13.3848
     2.1943   2.9330   4.3000   4.5601   4.8900   4.9090   5.3334   5.5938

          k =-0.1250-0.6895 0.1091 ( 18108 PWs)   bands (ev):

   -33.1143 -33.0846 -33.0782 -33.0520 -13.7933 -13.7732 -13.7406 -13.7202
   -13.6525 -13.6293 -13.5943 -13.5307 -13.4981 -13.4420 -13.4284 -13.3957
     3.0271   4.2908   4.3470   4.4651   4.6358   4.7016   4.8132   5.0205

          k =-0.1250 0.6895-0.1091 ( 18108 PWs)   bands (ev):

   -33.1143 -33.0846 -33.0782 -33.0520 -13.7934 -13.7733 -13.7401 -13.7205
   -13.6528 -13.6297 -13.5938 -13.5309 -13.4975 -13.4425 -13.4282 -13.3958
     3.0272   4.2901   4.3470   4.4640   4.6323   4.7084   4.8122   5.0202

          k = 0.1250-0.6895-0.1091 ( 18108 PWs)   bands (ev):

   -33.1143 -33.0846 -33.0782 -33.0520 -13.7932 -13.7733 -13.7406 -13.7202
   -13.6525 -13.6293 -13.5944 -13.5307 -13.4981 -13.4420 -13.4284 -13.3958
     3.0271   4.2908   4.3470   4.4651   4.6358   4.7016   4.8132   5.0205

          k =-0.1250-0.6895 0.3272 ( 18096 PWs)   bands (ev):

   -33.1128 -33.0875 -33.0768 -33.0519 -13.8293 -13.8151 -13.7226 -13.7058
   -13.6692 -13.6473 -13.5617 -13.5330 -13.4575 -13.4317 -13.4157 -13.4046
     3.3139   3.8130   4.4604   4.5321   4.6128   4.6601   4.7643   4.8514

          k =-0.1250 0.6895-0.3272 ( 18096 PWs)   bands (ev):

   -33.1128 -33.0875 -33.0768 -33.0519 -13.8293 -13.8151 -13.7224 -13.7059
   -13.6696 -13.6473 -13.5614 -13.5331 -13.4564 -13.4332 -13.4156 -13.4043
     3.3141   3.8125   4.4583   4.5304   4.6180   4.6608   4.7619   4.8524

          k = 0.1250-0.6895-0.3272 ( 18096 PWs)   bands (ev):

   -33.1128 -33.0875 -33.0768 -33.0519 -13.8292 -13.8152 -13.7226 -13.7058
   -13.6692 -13.6474 -13.5617 -13.5329 -13.4576 -13.4317 -13.4156 -13.4046
     3.3139   3.8130   4.4604   4.5321   4.6128   4.6602   4.7643   4.8514

          k =-0.3750-0.1379 0.1091 ( 18069 PWs)   bands (ev):

   -33.1402 -33.1173 -33.0935 -33.0852 -13.8394 -13.8236 -13.7314 -13.5559
   -13.4801 -13.4606 -13.4454 -13.4248 -13.4159 -13.3919 -13.3802 -13.3705
     1.6370   2.6768   3.7793   4.3633   4.6817   5.0499   5.7303   6.0801

          k =-0.3750 0.1379-0.1091 ( 18069 PWs)   bands (ev):

   -33.1401 -33.1174 -33.0932 -33.0854 -13.8396 -13.8233 -13.7315 -13.5561
   -13.4792 -13.4609 -13.4459 -13.4254 -13.4156 -13.3914 -13.3799 -13.3707
     1.6364   2.6776   3.7846   4.3525   4.6853   5.0508   5.7315   6.0801

          k = 0.3750-0.1379-0.1091 ( 18069 PWs)   bands (ev):

   -33.1402 -33.1173 -33.0935 -33.0852 -13.8394 -13.8236 -13.7314 -13.5559
   -13.4801 -13.4605 -13.4455 -13.4248 -13.4158 -13.3920 -13.3802 -13.3704
     1.6370   2.6768   3.7793   4.3633   4.6817   5.0499   5.7303   6.0801

          k =-0.3750-0.1379 0.3272 ( 18069 PWs)   bands (ev):

   -33.1334 -33.1183 -33.0984 -33.0862 -13.7952 -13.7575 -13.7275 -13.6256
   -13.5027 -13.4860 -13.4407 -13.4195 -13.4090 -13.3998 -13.3870 -13.3761
     2.0763   2.8004   3.1098   3.6846   5.3041   5.5252   5.6487   5.9473

          k =-0.3750 0.1379-0.3272 ( 18069 PWs)   bands (ev):

   -33.1333 -33.1184 -33.0982 -33.0863 -13.7955 -13.7568 -13.7277 -13.6260
   -13.5019 -13.4865 -13.4409 -13.4199 -13.4095 -13.3989 -13.3867 -13.3764
     2.0740   2.8074   3.1066   3.6833   5.2965   5.5383   5.6419   5.9487

          k = 0.3750-0.1379-0.3272 ( 18069 PWs)   bands (ev):

   -33.1334 -33.1183 -33.0984 -33.0862 -13.7952 -13.7575 -13.7275 -13.6256
   -13.5027 -13.4860 -13.4407 -13.4195 -13.4091 -13.3999 -13.3870 -13.3761
     2.0763   2.8004   3.1098   3.6847   5.3041   5.5252   5.6487   5.9473

          k =-0.3750-0.4137 0.1091 ( 18074 PWs)   bands (ev):

   -33.1224 -33.1031 -33.0838 -33.0734 -13.7906 -13.7746 -13.7265 -13.6258
   -13.5971 -13.5525 -13.5122 -13.4887 -13.4593 -13.4267 -13.4106 -13.4040
     2.3028   3.1770   4.1144   4.5386   4.7728   5.0461   5.3552   5.5605

          k =-0.3750 0.4137-0.1091 ( 18074 PWs)   bands (ev):

   -33.1224 -33.1031 -33.0836 -33.0735 -13.7908 -13.7743 -13.7265 -13.6259
   -13.5973 -13.5526 -13.5119 -13.4890 -13.4585 -13.4277 -13.4109 -13.4034
     2.3024   3.1773   4.1141   4.5452   4.7642   5.0478   5.3559   5.5605

          k = 0.3750-0.4137-0.1091 ( 18074 PWs)   bands (ev):

   -33.1224 -33.1031 -33.0838 -33.0734 -13.7906 -13.7745 -13.7265 -13.6259
   -13.5972 -13.5526 -13.5123 -13.4887 -13.4592 -13.4267 -13.4106 -13.4040
     2.3028   3.1770   4.1144   4.5386   4.7728   5.0461   5.3552   5.5605

          k =-0.3750-0.4137 0.3272 ( 18089 PWs)   bands (ev):

   -33.1181 -33.1038 -33.0869 -33.0740 -13.7814 -13.7552 -13.7337 -13.6758
   -13.5559 -13.5353 -13.5037 -13.4863 -13.4809 -13.4528 -13.4061 -13.4024
     2.6755   3.2857   3.5404   3.9958   5.1351   5.2469   5.3591   5.5248

          k =-0.3750 0.4137-0.3272 ( 18089 PWs)   bands (ev):

   -33.1181 -33.1039 -33.0868 -33.0740 -13.7816 -13.7549 -13.7336 -13.6760
   -13.5560 -13.5356 -13.5029 -13.4862 -13.4808 -13.4534 -13.4069 -13.4015
     2.6743   3.2898   3.5361   3.9980   5.1278   5.2571   5.3544   5.5257

          k = 0.3750-0.4137-0.3272 ( 18089 PWs)   bands (ev):

   -33.1181 -33.1038 -33.0869 -33.0740 -13.7813 -13.7553 -13.7337 -13.6759
   -13.5559 -13.5355 -13.5037 -13.4863 -13.4808 -13.4528 -13.4060 -13.4024
     2.6755   3.2857   3.5404   3.9958   5.1351   5.2469   5.3591   5.5248

          k =-0.3750-0.6895 0.1091 ( 18120 PWs)   bands (ev):

   -33.1036 -33.0886 -33.0755 -33.0615 -13.8054 -13.7909 -13.7759 -13.7565
   -13.6359 -13.5949 -13.5751 -13.5489 -13.4602 -13.4319 -13.4220 -13.4011
     3.3821   3.9216   4.4578   4.5581   4.6401   4.7169   4.8822   4.9827

          k =-0.3750 0.6895-0.1091 ( 18120 PWs)   bands (ev):

   -33.1036 -33.0886 -33.0754 -33.0615 -13.8054 -13.7909 -13.7757 -13.7566
   -13.6364 -13.5944 -13.5751 -13.5489 -13.4598 -13.4318 -13.4224 -13.4012
     3.3824   3.9209   4.4566   4.5541   4.6444   4.7196   4.8828   4.9809

          k = 0.3750-0.6895-0.1091 ( 18120 PWs)   bands (ev):

   -33.1036 -33.0886 -33.0755 -33.0615 -13.8054 -13.7909 -13.7759 -13.7565
   -13.6360 -13.5950 -13.5751 -13.5489 -13.4601 -13.4319 -13.4220 -13.4011
     3.3821   3.9216   4.4578   4.5581   4.6401   4.7169   4.8822   4.9827

          k =-0.3750-0.6895 0.3272 ( 18101 PWs)   bands (ev):

   -33.1028 -33.0887 -33.0760 -33.0616 -13.8394 -13.8298 -13.7889 -13.7770
   -13.5875 -13.5667 -13.5445 -13.5301 -13.4612 -13.4398 -13.4211 -13.4073
     3.6182   3.9797   4.1697   4.3627   4.6461   4.7058   4.8596   4.9076

          k =-0.3750 0.6895-0.3272 ( 18101 PWs)   bands (ev):

   -33.1027 -33.0888 -33.0759 -33.0616 -13.8394 -13.8297 -13.7889 -13.7771
   -13.5882 -13.5664 -13.5438 -13.5304 -13.4605 -13.4406 -13.4207 -13.4076
     3.6191   3.9791   4.1641   4.3682   4.6479   4.7039   4.8605   4.9067

          k = 0.3750-0.6895-0.3272 ( 18101 PWs)   bands (ev):

   -33.1028 -33.0887 -33.0760 -33.0616 -13.8394 -13.8299 -13.7889 -13.7771
   -13.5875 -13.5667 -13.5446 -13.5300 -13.4612 -13.4398 -13.4211 -13.4073
     3.6182   3.9797   4.1697   4.3627   4.6462   4.7059   4.8596   4.9076

!    total energy              =    -303.13443646 Ry
     Harris-Foulkes estimate   =    -303.13443611 Ry
     estimated scf accuracy    <       0.00000047 Ry

     The total energy is the sum of the following terms:

     one-electron contribution =    -101.25594857 Ry
     hartree contribution      =      62.12990863 Ry
     xc contribution           =     -47.36989031 Ry
     ewald contribution        =    -216.63850622 Ry

     convergence has been achieved in   8 iterations

     Forces acting on atoms (Ry/au):

     atom    1 type  2   force =     0.00192974   -0.00111383    0.00641826
     atom    2 type  2   force =    -0.00226396   -0.00001564    0.00474684
     atom    3 type  2   force =     0.00295142    0.00001407   -0.00695142
     atom    4 type  2   force =    -0.00269273    0.00111628   -0.00635846
     atom    5 type  1   force =    -0.00139483   -0.00000095    0.00047077
     atom    6 type  1   force =     0.00116865    0.00000044   -0.00014409
     atom    7 type  1   force =    -0.00119894   -0.00000082   -0.00012677
     atom    8 type  1   force =     0.00090204    0.00000072    0.00442653
     atom    9 type  1   force =    -0.00070270   -0.00001252    0.00351160
     atom   10 type  1   force =     0.00056835    0.00001209    0.00344350
     atom   11 type  1   force =    -0.00006604   -0.00001247   -0.00600610
     atom   12 type  1   force =     0.00079901    0.00001263   -0.00343067

     Total force =     0.016619     Total SCF correction =     0.002522
     SCF correction compared to forces is large: reduce conv_thr to get better values


     entering subroutine stress ...

          total   stress  (Ry/bohr**3)                   (kbar)     P=  121.57
   0.00078626  -0.00000000  -0.00000407        115.66     -0.00     -0.60
  -0.00000000   0.00083857   0.00000006         -0.00    123.36      0.01
  -0.00000407   0.00000006   0.00085433         -0.60      0.01    125.68


     BFGS Geometry Optimization

     number of scf cycles    =   1
     number of bfgs steps    =   0

     enthalpy new            =    -301.4722649075 Ry

     new trust radius        =       0.1788742823 bohr
     new conv_thr            =       0.0000010000 Ry

     new unit-cell volume =    743.12423 a.u.^3 (   110.11965 Ang^3 )

CELL_PARAMETERS (alat= 10.55800000)
   0.968672587  -0.000000013  -0.000101636
  -0.000000008   0.586159089   0.000000937
  -0.000116475   0.000001777   1.112049041

ATOMIC_POSITIONS (crystal)
Ca       0.240182775   0.250000000   0.110430458    1   0   1
Ca       0.259785569  -0.250000000   0.610292318    1   0   1
Ca       0.740279543   0.250000000   0.389525478    1   0   1
Ca      -0.240255041  -0.250000000  -0.110425516    1   0   1
H        0.355567889   0.250000000   0.426538908    1   0   1
H        0.144410688  -0.250000000   0.926488091    1   0   1
H        0.855586442   0.250000000   0.073489523    1   0   1
H       -0.355614563  -0.250000000  -0.429134155    1   0   1
H        0.975333444   0.250000000   0.676790228    1   0   1
H       -0.475346169  -0.250000000   1.176784599    1   0   1
H        1.475393745   0.250000000  -0.173996394    1   0   1
H       -0.975324322  -0.250000000  -0.676783539    1   0   1



     Writing output data file CaH2_ambient.save
     NEW-OLD atomic charge density approx. for the potential
     NEW k-points:
        k(    1) = (   0.1290544   0.1421683   0.1124184), wk =   0.0416667
        k(    2) = (   0.1290780   0.1421679   0.3372286), wk =   0.0416667
        k(    3) = (   0.1290544   0.4265052   0.1124180), wk =   0.0416667
        k(    4) = (   0.1290780   0.4265048   0.3372282), wk =   0.0416667
        k(    5) = (   0.1290544   0.7108421   0.1124175), wk =   0.0416667
        k(    6) = (   0.1290780   0.7108417   0.3372277), wk =   0.0416667
        k(    7) = (   0.3871395   0.1421683   0.1124454), wk =   0.0416667
        k(    8) = (   0.3871631   0.1421679   0.3372557), wk =   0.0416667
        k(    9) = (   0.3871395   0.4265052   0.1124450), wk =   0.0416667
        k(   10) = (   0.3871631   0.4265048   0.3372552), wk =   0.0416667
        k(   11) = (   0.3871395   0.7108421   0.1124445), wk =   0.0416667
        k(   12) = (   0.3871631   0.7108418   0.3372548), wk =   0.0416667
        k(   13) = (  -0.1290308  -0.1421686   0.1123918), wk =   0.0416667
        k(   14) = (  -0.1290544   0.1421686  -0.1124189), wk =   0.0416667
        k(   15) = (   0.1290308  -0.1421683  -0.1123914), wk =   0.0416667
        k(   16) = (  -0.1290072  -0.1421690   0.3372021), wk =   0.0416667
        k(   17) = (  -0.1290780   0.1421690  -0.3372291), wk =   0.0416667
        k(   18) = (   0.1290072  -0.1421679  -0.3372016), wk =   0.0416667
        k(   19) = (  -0.1290308  -0.4265056   0.1123923), wk =   0.0416667
        k(   20) = (  -0.1290544   0.4265055  -0.1124193), wk =   0.0416667
        k(   21) = (   0.1290308  -0.4265052  -0.1123909), wk =   0.0416667
        k(   22) = (  -0.1290072  -0.4265059   0.3372025), wk =   0.0416667
        k(   23) = (  -0.1290779   0.4265059  -0.3372295), wk =   0.0416667
        k(   24) = (   0.1290072  -0.4265048  -0.3372012), wk =   0.0416667
        k(   25) = (  -0.1290308  -0.7108425   0.1123927), wk =   0.0416667
        k(   26) = (  -0.1290544   0.7108425  -0.1124198), wk =   0.0416667
        k(   27) = (   0.1290308  -0.7108421  -0.1123905), wk =   0.0416667
        k(   28) = (  -0.1290072  -0.7108428   0.3372030), wk =   0.0416667
        k(   29) = (  -0.1290779   0.7108428  -0.3372300), wk =   0.0416667
        k(   30) = (   0.1290072  -0.7108417  -0.3372007), wk =   0.0416667
        k(   31) = (  -0.3871159  -0.1421686   0.1123648), wk =   0.0416667
        k(   32) = (  -0.3871395   0.1421686  -0.1124459), wk =   0.0416667
        k(   33) = (   0.3871159  -0.1421683  -0.1123643), wk =   0.0416667
        k(   34) = (  -0.3870923  -0.1421690   0.3371750), wk =   0.0416667
        k(   35) = (  -0.3871631   0.1421690  -0.3372561), wk =   0.0416667
        k(   36) = (   0.3870923  -0.1421679  -0.3371746), wk =   0.0416667
        k(   37) = (  -0.3871159  -0.4265056   0.1123652), wk =   0.0416667
        k(   38) = (  -0.3871395   0.4265055  -0.1124463), wk =   0.0416667
        k(   39) = (   0.3871159  -0.4265052  -0.1123639), wk =   0.0416667
        k(   40) = (  -0.3870923  -0.4265059   0.3371755), wk =   0.0416667
        k(   41) = (  -0.3871631   0.4265059  -0.3372566), wk =   0.0416667
        k(   42) = (   0.3870923  -0.4265048  -0.3371741), wk =   0.0416667
        k(   43) = (  -0.3871159  -0.7108425   0.1123657), wk =   0.0416667
        k(   44) = (  -0.3871395   0.7108425  -0.1124468), wk =   0.0416667
        k(   45) = (   0.3871159  -0.7108421  -0.1123634), wk =   0.0416667
        k(   46) = (  -0.3870923  -0.7108428   0.3371759), wk =   0.0416667
        k(   47) = (  -0.3871631   0.7108428  -0.3372570), wk =   0.0416667
        k(   48) = (   0.3870923  -0.7108417  -0.3371737), wk =   0.0416667
     extrapolated charge   43.35649, renormalised to   48.00000

     total cpu time spent up to now is     1941.8 secs

     per-process dynamical memory:   102.5 Mb

     Self-consistent Calculation

     iteration #  1     ecut=   120.00 Ry     beta=0.30
     Davidson diagonalization with overlap
     ethr =  1.00E-06,  avg # of iterations =  9.2

     total cpu time spent up to now is     2400.1 secs

     total energy              =    -302.41559296 Ry
     Harris-Foulkes estimate   =    -308.41731445 Ry
     estimated scf accuracy    <       0.64144235 Ry

     iteration #  2     ecut=   120.00 Ry     beta=0.30
     Davidson diagonalization with overlap
     ethr =  1.34E-03,  avg # of iterations =  3.0

     total cpu time spent up to now is     2623.4 secs

     total energy              =    -303.02384090 Ry
     Harris-Foulkes estimate   =    -303.01071877 Ry
     estimated scf accuracy    <       0.00887228 Ry

     iteration #  3     ecut=   120.00 Ry     beta=0.30
     Davidson diagonalization with overlap
     ethr =  1.85E-05,  avg # of iterations =  2.1

     total cpu time spent up to now is     2776.1 secs

     total energy              =    -303.05192543 Ry
     Harris-Foulkes estimate   =    -303.02458676 Ry
     estimated scf accuracy    <       0.00577526 Ry

     iteration #  4     ecut=   120.00 Ry     beta=0.30
     Davidson diagonalization with overlap
     ethr =  1.20E-05,  avg # of iterations =  2.2

     total cpu time spent up to now is     2935.6 secs

     total energy              =    -303.05297073 Ry
     Harris-Foulkes estimate   =    -303.05258927 Ry
     estimated scf accuracy    <       0.00075370 Ry

     iteration #  5     ecut=   120.00 Ry     beta=0.30
     Davidson diagonalization with overlap
     ethr =  1.57E-06,  avg # of iterations =  3.0

     total cpu time spent up to now is     3129.7 secs

     total energy              =    -303.05324377 Ry
     Harris-Foulkes estimate   =    -303.05309637 Ry
     estimated scf accuracy    <       0.00013167 Ry

     iteration #  6     ecut=   120.00 Ry     beta=0.30
     Davidson diagonalization with overlap
     ethr =  2.74E-07,  avg # of iterations =  2.9

     total cpu time spent up to now is     3277.3 secs

     total energy              =    -303.05319985 Ry
     Harris-Foulkes estimate   =    -303.05325084 Ry
     estimated scf accuracy    <       0.00005595 Ry

     iteration #  7     ecut=   120.00 Ry     beta=0.30
     Davidson diagonalization with overlap
     ethr =  1.17E-07,  avg # of iterations =  3.0

     total cpu time spent up to now is     3479.8 secs

     End of self-consistent calculation

          k = 0.1291 0.1422 0.1124 ( 18078 PWs)   bands (ev):

   -31.9728 -31.8959 -31.8793 -31.8629 -12.8057 -12.6735 -12.6108 -12.4251
   -12.3179 -12.2759 -12.2675 -12.1864 -12.1600 -12.1401 -12.1217 -12.1140
     1.7151   4.2876   4.6872   5.3171   5.7021   5.9160   6.1379   7.0175

          k = 0.1291 0.1422 0.3372 ( 18096 PWs)   bands (ev):

   -31.9555 -31.9222 -31.8748 -31.8586 -12.7446 -12.6618 -12.5162 -12.4544
   -12.3774 -12.3203 -12.2451 -12.2092 -12.1860 -12.1393 -12.1358 -12.1226
     2.2545   3.1922   4.9924   5.4116   5.8575   5.8936   6.4370   6.9100

          k = 0.1291 0.4265 0.1124 ( 18089 PWs)   bands (ev):

   -31.9418 -31.8799 -31.8658 -31.8451 -12.7303 -12.5911 -12.5878 -12.4673
   -12.4266 -12.3921 -12.3613 -12.3094 -12.2885 -12.2665 -12.1519 -12.1304
     2.5456   4.6769   4.9929   5.3978   5.6609   5.7322   6.0393   6.5283

          k = 0.1291 0.4265 0.3372 ( 18122 PWs)   bands (ev):

   -31.9292 -31.9002 -31.8609 -31.8427 -12.6882 -12.6308 -12.5398 -12.4901
   -12.4553 -12.4138 -12.3691 -12.3135 -12.2634 -12.2108 -12.1829 -12.1474
     2.9994   3.7908   5.1619   5.4286   5.7049   5.7330   6.1966   6.4499

          k = 0.1291 0.7108 0.1124 ( 18108 PWs)   bands (ev):

   -31.9045 -31.8727 -31.8497 -31.8270 -12.7028 -12.6765 -12.6289 -12.6026
   -12.5081 -12.4779 -12.4293 -12.3465 -12.3038 -12.2222 -12.2118 -12.1630
     3.8892   5.1577   5.2353   5.2902   5.4445   5.5186   5.6149   5.8395

          k = 0.1291 0.7108 0.3372 ( 18096 PWs)   bands (ev):

   -31.9010 -31.8774 -31.8487 -31.8267 -12.7530 -12.7373 -12.6004 -12.5845
   -12.5273 -12.5024 -12.3855 -12.3506 -12.2453 -12.2079 -12.1934 -12.1766
     4.1747   4.6782   5.2444   5.3338   5.4472   5.5348   5.5547   5.6780

          k = 0.3871 0.1422 0.1124 ( 18069 PWs)   bands (ev):

   -31.9455 -31.9088 -31.8829 -31.8740 -12.7711 -12.7503 -12.6183 -12.3781
   -12.2748 -12.2487 -12.2296 -12.2063 -12.1874 -12.1612 -12.1469 -12.1333
     2.3963   3.5149   4.6374   5.1498   5.6444   5.9479   6.5930   6.9564

          k = 0.3872 0.1422 0.3373 ( 18069 PWs)   bands (ev):

   -31.9331 -31.9115 -31.8903 -31.8763 -12.7090 -12.6563 -12.6181 -12.4786
   -12.3047 -12.2850 -12.2230 -12.1942 -12.1821 -12.1687 -12.1564 -12.1423
     2.8731   3.6610   3.9606   4.5642   6.1532   6.3932   6.4943   6.8194

          k = 0.3871 0.4265 0.1124 ( 18074 PWs)   bands (ev):

   -31.9184 -31.8873 -31.8694 -31.8577 -12.7026 -12.6811 -12.6121 -12.4763
   -12.4397 -12.3734 -12.3218 -12.2862 -12.2452 -12.2025 -12.1865 -12.1784
     3.1155   4.0388   4.9908   5.3996   5.6304   5.9374   6.1819   6.4036

          k = 0.3872 0.4265 0.3373 ( 18089 PWs)   bands (ev):

   -31.9099 -31.8902 -31.8739 -31.8590 -12.6888 -12.6532 -12.6253 -12.5471
   -12.3797 -12.3484 -12.3108 -12.2821 -12.2783 -12.2408 -12.1786 -12.1740
     3.5117   4.1698   4.3905   4.8710   5.9600   6.0977   6.1897   6.3672

          k = 0.3871 0.7108 0.1124 ( 18120 PWs)   bands (ev):

   -31.8878 -31.8652 -31.8598 -31.8412 -12.7185 -12.6997 -12.6763 -12.6550
   -12.4904 -12.4307 -12.4026 -12.3686 -12.2462 -12.2185 -12.1927 -12.1737
     4.2440   4.7683   5.2791   5.3366   5.5470   5.6332   5.7013   5.8114

          k = 0.3872 0.7108 0.3373 ( 18101 PWs)   bands (ev):

   -31.8859 -31.8666 -31.8600 -31.8414 -12.7659 -12.7542 -12.6952 -12.6821
   -12.4206 -12.3895 -12.3606 -12.3431 -12.2492 -12.2227 -12.1978 -12.1822
     4.4670   4.8224   4.9516   5.1320   5.5693   5.6030   5.6942   5.7449

          k =-0.1290-0.1422 0.1124 ( 18078 PWs)   bands (ev):

   -31.9728 -31.8959 -31.8792 -31.8630 -12.8057 -12.6736 -12.6108 -12.4255
   -12.3175 -12.2757 -12.2676 -12.1861 -12.1600 -12.1401 -12.1217 -12.1144
     1.7154   4.2831   4.6912   5.3206   5.7025   5.9092   6.1414   7.0168

          k =-0.1291 0.1422-0.1124 ( 18078 PWs)   bands (ev):

   -31.9728 -31.8959 -31.8793 -31.8629 -12.8057 -12.6735 -12.6108 -12.4251
   -12.3179 -12.2759 -12.2675 -12.1863 -12.1600 -12.1401 -12.1217 -12.1140
     1.7151   4.2876   4.6872   5.3171   5.7021   5.9160   6.1379   7.0175

          k = 0.1290-0.1422-0.1124 ( 18078 PWs)   bands (ev):

   -31.9728 -31.8959 -31.8792 -31.8630 -12.8057 -12.6736 -12.6108 -12.4255
   -12.3175 -12.2758 -12.2676 -12.1862 -12.1600 -12.1401 -12.1216 -12.1144
     1.7154   4.2831   4.6912   5.3206   5.7025   5.9092   6.1414   7.0168

          k =-0.1290-0.1422 0.3372 ( 18096 PWs)   bands (ev):

   -31.9555 -31.9222 -31.8748 -31.8586 -12.7445 -12.6618 -12.5164 -12.4546
   -12.3771 -12.3200 -12.2452 -12.2084 -12.1866 -12.1394 -12.1359 -12.1227
     2.2554   3.1904   4.9965   5.4066   5.8661   5.8873   6.4376   6.9085

          k =-0.1291 0.1422-0.3372 ( 18096 PWs)   bands (ev):

   -31.9555 -31.9222 -31.8748 -31.8586 -12.7446 -12.6618 -12.5162 -12.4544
   -12.3773 -12.3203 -12.2450 -12.2092 -12.1860 -12.1393 -12.1358 -12.1226
     2.2545   3.1922   4.9924   5.4116   5.8575   5.8936   6.4370   6.9100

          k = 0.1290-0.1422-0.3372 ( 18096 PWs)   bands (ev):

   -31.9555 -31.9222 -31.8748 -31.8586 -12.7446 -12.6618 -12.5164 -12.4545
   -12.3771 -12.3201 -12.2452 -12.2084 -12.1866 -12.1394 -12.1359 -12.1227
     2.2554   3.1904   4.9965   5.4066   5.8661   5.8873   6.4376   6.9085

          k =-0.1290-0.4265 0.1124 ( 18089 PWs)   bands (ev):

   -31.9418 -31.8799 -31.8658 -31.8451 -12.7303 -12.5907 -12.5882 -12.4677
   -12.4262 -12.3923 -12.3610 -12.3096 -12.2883 -12.2664 -12.1518 -12.1307
     2.5457   4.6750   4.9967   5.3963   5.6632   5.7281   6.0404   6.5285

          k =-0.1291 0.4265-0.1124 ( 18089 PWs)   bands (ev):

   -31.9418 -31.8799 -31.8658 -31.8451 -12.7303 -12.5911 -12.5879 -12.4672
   -12.4266 -12.3920 -12.3612 -12.3094 -12.2886 -12.2664 -12.1520 -12.1304
     2.5456   4.6769   4.9929   5.3978   5.6609   5.7322   6.0393   6.5283

          k = 0.1290-0.4265-0.1124 ( 18089 PWs)   bands (ev):

   -31.9418 -31.8799 -31.8658 -31.8451 -12.7303 -12.5907 -12.5881 -12.4677
   -12.4263 -12.3923 -12.3611 -12.3096 -12.2882 -12.2663 -12.1517 -12.1308
     2.5457   4.6750   4.9966   5.3963   5.6632   5.7281   6.0404   6.5285

          k =-0.1290-0.4265 0.3372 ( 18122 PWs)   bands (ev):

   -31.9292 -31.9002 -31.8609 -31.8427 -12.6882 -12.6307 -12.5400 -12.4902
   -12.4554 -12.4136 -12.3689 -12.3136 -12.2636 -12.2101 -12.1829 -12.1478
     2.9998   3.7900   5.1674   5.4208   5.7090   5.7311   6.1968   6.4500

          k =-0.1291 0.4265-0.3372 ( 18122 PWs)   bands (ev):

   -31.9292 -31.9002 -31.8609 -31.8427 -12.6882 -12.6308 -12.5399 -12.4901
   -12.4553 -12.4137 -12.3690 -12.3136 -12.2633 -12.2108 -12.1829 -12.1474
     2.9994   3.7908   5.1619   5.4286   5.7049   5.7330   6.1966   6.4499

          k = 0.1290-0.4265-0.3372 ( 18122 PWs)   bands (ev):

   -31.9292 -31.9002 -31.8609 -31.8427 -12.6882 -12.6306 -12.5399 -12.4902
   -12.4554 -12.4137 -12.3690 -12.3135 -12.2637 -12.2101 -12.1829 -12.1478
     2.9998   3.7900   5.1674   5.4208   5.7090   5.7311   6.1968   6.4500

          k =-0.1290-0.7108 0.1124 ( 18108 PWs)   bands (ev):

   -31.9045 -31.8727 -31.8497 -31.8270 -12.7029 -12.6760 -12.6298 -12.6022
   -12.5079 -12.4776 -12.4297 -12.3465 -12.3039 -12.2219 -12.2120 -12.1630
     3.8890   5.1599   5.2355   5.2913   5.4435   5.5164   5.6144   5.8398

          k =-0.1291 0.7108-0.1124 ( 18108 PWs)   bands (ev):

   -31.9045 -31.8727 -31.8497 -31.8270 -12.7029 -12.6765 -12.6289 -12.6025
   -12.5082 -12.4780 -12.4293 -12.3465 -12.3038 -12.2222 -12.2119 -12.1630
     3.8892   5.1577   5.2353   5.2902   5.4445   5.5187   5.6149   5.8395

          k = 0.1290-0.7108-0.1124 ( 18108 PWs)   bands (ev):

   -31.9045 -31.8727 -31.8497 -31.8270 -12.7029 -12.6760 -12.6298 -12.6022
   -12.5079 -12.4776 -12.4297 -12.3465 -12.3040 -12.2219 -12.2119 -12.1630
     3.8890   5.1599   5.2355   5.2913   5.4435   5.5164   5.6144   5.8398

          k =-0.1290-0.7108 0.3372 ( 18096 PWs)   bands (ev):

   -31.9010 -31.8774 -31.8487 -31.8267 -12.7530 -12.7373 -12.6006 -12.5845
   -12.5271 -12.5023 -12.3857 -12.3506 -12.2459 -12.2069 -12.1936 -12.1768
     4.1741   4.6795   5.2472   5.3311   5.4471   5.5362   5.5524   5.6780

          k =-0.1291 0.7108-0.3372 ( 18096 PWs)   bands (ev):

   -31.9010 -31.8774 -31.8487 -31.8267 -12.7530 -12.7373 -12.6004 -12.5845
   -12.5273 -12.5024 -12.3854 -12.3507 -12.2453 -12.2079 -12.1934 -12.1766
     4.1747   4.6781   5.2444   5.3338   5.4472   5.5348   5.5547   5.6780

          k = 0.1290-0.7108-0.3372 ( 18096 PWs)   bands (ev):

   -31.9010 -31.8774 -31.8487 -31.8267 -12.7530 -12.7373 -12.6006 -12.5845
   -12.5270 -12.5023 -12.3858 -12.3505 -12.2459 -12.2069 -12.1936 -12.1768
     4.1740   4.6796   5.2472   5.3311   5.4471   5.5362   5.5524   5.6780

          k =-0.3871-0.1422 0.1124 ( 18069 PWs)   bands (ev):

   -31.9455 -31.9088 -31.8828 -31.8741 -12.7713 -12.7501 -12.6184 -12.3779
   -12.2751 -12.2486 -12.2293 -12.2061 -12.1877 -12.1614 -12.1469 -12.1333
     2.3968   3.5143   4.6295   5.1658   5.6349   5.9503   6.5915   6.9565

          k =-0.3871 0.1422-0.1124 ( 18069 PWs)   bands (ev):

   -31.9455 -31.9088 -31.8829 -31.8740 -12.7711 -12.7503 -12.6183 -12.3781
   -12.2747 -12.2487 -12.2297 -12.2063 -12.1874 -12.1613 -12.1469 -12.1333
     2.3963   3.5149   4.6374   5.1498   5.6444   5.9479   6.5930   6.9564

          k = 0.3871-0.1422-0.1124 ( 18069 PWs)   bands (ev):

   -31.9455 -31.9088 -31.8828 -31.8741 -12.7713 -12.7501 -12.6183 -12.3779
   -12.2751 -12.2486 -12.2294 -12.2061 -12.1876 -12.1614 -12.1469 -12.1333
     2.3968   3.5143   4.6295   5.1658   5.6348   5.9503   6.5915   6.9565

          k =-0.3871-0.1422 0.3372 ( 18069 PWs)   bands (ev):

   -31.9331 -31.9116 -31.8902 -31.8764 -12.7092 -12.6561 -12.6183 -12.4783
   -12.3054 -12.2844 -12.2230 -12.1938 -12.1824 -12.1690 -12.1561 -12.1425
     2.8752   3.6543   3.9635   4.5662   6.1599   6.3801   6.5012   6.8181

          k =-0.3872 0.1422-0.3373 ( 18069 PWs)   bands (ev):

   -31.9331 -31.9115 -31.8903 -31.8763 -12.7090 -12.6563 -12.6181 -12.4786
   -12.3047 -12.2849 -12.2230 -12.1942 -12.1820 -12.1688 -12.1564 -12.1423
     2.8731   3.6610   3.9606   4.5642   6.1532   6.3932   6.4943   6.8194

          k = 0.3871-0.1422-0.3372 ( 18069 PWs)   bands (ev):

   -31.9331 -31.9116 -31.8902 -31.8764 -12.7092 -12.6561 -12.6183 -12.4784
   -12.3054 -12.2844 -12.2230 -12.1938 -12.1825 -12.1690 -12.1561 -12.1424
     2.8752   3.6543   3.9635   4.5662   6.1599   6.3801   6.5012   6.8181

          k =-0.3871-0.4265 0.1124 ( 18074 PWs)   bands (ev):

   -31.9184 -31.8873 -31.8694 -31.8577 -12.7027 -12.6810 -12.6122 -12.4764
   -12.4397 -12.3733 -12.3214 -12.2867 -12.2454 -12.2019 -12.1867 -12.1786
     3.1156   4.0390   4.9895   5.4003   5.6307   5.9378   6.1807   6.4041

          k =-0.3871 0.4265-0.1124 ( 18074 PWs)   bands (ev):

   -31.9184 -31.8873 -31.8694 -31.8577 -12.7027 -12.6811 -12.6121 -12.4763
   -12.4397 -12.3734 -12.3217 -12.2863 -12.2452 -12.2025 -12.1866 -12.1784
     3.1155   4.0388   4.9907   5.3996   5.6304   5.9374   6.1819   6.4036

          k = 0.3871-0.4265-0.1124 ( 18074 PWs)   bands (ev):

   -31.9184 -31.8873 -31.8694 -31.8577 -12.7027 -12.6810 -12.6121 -12.4764
   -12.4397 -12.3734 -12.3215 -12.2866 -12.2453 -12.2018 -12.1867 -12.1786
     3.1156   4.0390   4.9895   5.4003   5.6307   5.9377   6.1808   6.4041

          k =-0.3871-0.4265 0.3372 ( 18089 PWs)   bands (ev):

   -31.9099 -31.8902 -31.8739 -31.8590 -12.6890 -12.6528 -12.6257 -12.5470
   -12.3798 -12.3479 -12.3109 -12.2828 -12.2782 -12.2405 -12.1784 -12.1743
     3.5123   4.1665   4.3947   4.8687   5.9662   6.0883   6.1934   6.3673

          k =-0.3872 0.4265-0.3373 ( 18089 PWs)   bands (ev):

   -31.9099 -31.8902 -31.8739 -31.8590 -12.6888 -12.6531 -12.6254 -12.5471
   -12.3797 -12.3484 -12.3108 -12.2822 -12.2782 -12.2409 -12.1786 -12.1741
     3.5117   4.1698   4.3905   4.8710   5.9600   6.0977   6.1897   6.3672

          k = 0.3871-0.4265-0.3372 ( 18089 PWs)   bands (ev):

   -31.9099 -31.8902 -31.8739 -31.8590 -12.6889 -12.6528 -12.6256 -12.5471
   -12.3798 -12.3480 -12.3109 -12.2827 -12.2781 -12.2404 -12.1784 -12.1743
     3.5123   4.1666   4.3947   4.8687   5.9661   6.0883   6.1934   6.3673

          k =-0.3871-0.7108 0.1124 ( 18120 PWs)   bands (ev):

   -31.8878 -31.8652 -31.8598 -31.8412 -12.7186 -12.6993 -12.6767 -12.6549
   -12.4900 -12.4309 -12.4023 -12.3690 -12.2464 -12.2186 -12.1924 -12.1737
     4.2433   4.7698   5.2815   5.3372   5.5422   5.6329   5.7007   5.8133

          k =-0.3871 0.7108-0.1124 ( 18120 PWs)   bands (ev):

   -31.8878 -31.8652 -31.8598 -31.8412 -12.7185 -12.6997 -12.6763 -12.6549
   -12.4904 -12.4307 -12.4026 -12.3687 -12.2462 -12.2185 -12.1927 -12.1737
     4.2440   4.7683   5.2791   5.3366   5.5470   5.6333   5.7013   5.8115

          k = 0.3871-0.7108-0.1124 ( 18120 PWs)   bands (ev):

   -31.8878 -31.8652 -31.8598 -31.8412 -12.7186 -12.6993 -12.6767 -12.6549
   -12.4900 -12.4310 -12.4023 -12.3689 -12.2464 -12.2186 -12.1924 -12.1737
     4.2433   4.7698   5.2815   5.3372   5.5423   5.6329   5.7007   5.8133

          k =-0.3871-0.7108 0.3372 ( 18101 PWs)   bands (ev):

   -31.8859 -31.8666 -31.8600 -31.8414 -12.7660 -12.7541 -12.6953 -12.6820
   -12.4201 -12.3896 -12.3610 -12.3430 -12.2497 -12.2223 -12.1979 -12.1820
     4.4648   4.8254   4.9581   5.1250   5.5659   5.6066   5.6922   5.7463

          k =-0.3872 0.7108-0.3373 ( 18101 PWs)   bands (ev):

   -31.8859 -31.8666 -31.8600 -31.8414 -12.7659 -12.7542 -12.6952 -12.6821
   -12.4206 -12.3895 -12.3605 -12.3431 -12.2492 -12.2227 -12.1978 -12.1821
     4.4670   4.8223   4.9516   5.1320   5.5693   5.6030   5.6942   5.7450

          k = 0.3871-0.7108-0.3372 ( 18101 PWs)   bands (ev):

   -31.8859 -31.8666 -31.8600 -31.8414 -12.7659 -12.7542 -12.6953 -12.6821
   -12.4202 -12.3896 -12.3610 -12.3429 -12.2497 -12.2223 -12.1979 -12.1820
     4.4647   4.8254   4.9581   5.1250   5.5659   5.6066   5.6922   5.7463

!    total energy              =    -303.05327046 Ry
     Harris-Foulkes estimate   =    -303.05321192 Ry
     estimated scf accuracy    <       0.00000094 Ry

     The total energy is the sum of the following terms:

     one-electron contribution =     -91.09812119 Ry
     hartree contribution      =      59.14635242 Ry
     xc contribution           =     -47.68052258 Ry
     ewald contribution        =    -223.42097910 Ry

     convergence has been achieved in   7 iterations

     Forces acting on atoms (Ry/au):

     atom    1 type  2   force =     0.00380713   -0.00140742    0.00912929
     atom    2 type  2   force =    -0.00418372    0.00006529    0.00831265
     atom    3 type  2   force =     0.00486248   -0.00006286   -0.00970408
     atom    4 type  2   force =    -0.00458644    0.00138509   -0.00953276
     atom    5 type  1   force =    -0.00212939    0.00004127    0.00062757
     atom    6 type  1   force =     0.00205641   -0.00003620    0.00010579
     atom    7 type  1   force =    -0.00209443    0.00004125   -0.00044350
     atom    8 type  1   force =     0.00180183   -0.00003922    0.00406355
     atom    9 type  1   force =    -0.00079889    0.00005997    0.00726320
     atom   10 type  1   force =     0.00065495   -0.00005397    0.00727916
     atom   11 type  1   force =    -0.00024689    0.00006012   -0.00981433
     atom   12 type  1   force =     0.00085697   -0.00005331   -0.00728655

     Total force =     0.026546     Total SCF correction =     0.002644


     entering subroutine stress ...

          total   stress  (Ry/bohr**3)                   (kbar)     P=  217.78
   0.00141326  -0.00000002  -0.00000497        207.90     -0.00     -0.73
  -0.00000002   0.00149949   0.00000002         -0.00    220.58      0.00
  -0.00000497   0.00000002   0.00152862         -0.73      0.00    224.87


     number of scf cycles    =   2
     number of bfgs steps    =   1

     enthalpy old            =    -301.4722649075 Ry
     enthalpy new            =    -301.5377734575 Ry

     CASE: enthalpy_new < enthalpy_old

     new trust radius        =       0.1499538684 bohr
     new conv_thr            =       0.0000000981 Ry

     new unit-cell volume =    689.74216 a.u.^3 (   102.20924 Ang^3 )

CELL_PARAMETERS (alat= 10.55800000)
   0.942031031  -0.000000849  -0.000313240
  -0.000000512   0.572268713   0.000001368
  -0.000359134   0.000002595   1.087117868

ATOMIC_POSITIONS (crystal)
Ca       0.240806034   0.250000004   0.111739321    1   0   1
Ca       0.259100145  -0.249999996   0.611482882    1   0   1
Ca       0.741076615   0.249999996   0.388133918    1   0   1
Ca      -0.241006417  -0.250000004  -0.111791798    1   0   1
H        0.355218752   0.250000000   0.426628954    1   0   1
H        0.144747598  -0.250000000   0.926502963    1   0   1
H        0.855243296   0.250000000   0.073426192    1   0   1
H       -0.355319600  -0.249999998  -0.428549662    1   0   1
H        0.975202088   0.250000003   0.677829672    1   0   1
H       -0.475238716  -0.249999997   1.177826215    1   0   1
H        1.475353567   0.249999996  -0.175402443    1   0   1
H       -0.975183363  -0.250000003  -0.677826214    1   0   1



     Writing output data file CaH2_ambient.save
     NEW-OLD atomic charge density approx. for the potential
     NEW k-points:
        k(    1) = (   0.1327304   0.1456191   0.1150264), wk =   0.0416667
        k(    2) = (   0.1328069   0.1456185   0.3449923), wk =   0.0416667
        k(    3) = (   0.1327307   0.4368576   0.1150257), wk =   0.0416667
        k(    4) = (   0.1328071   0.4368570   0.3449916), wk =   0.0416667
        k(    5) = (   0.1327309   0.7280960   0.1150250), wk =   0.0416667
        k(    6) = (   0.1328074   0.7280955   0.3449909), wk =   0.0416667
        k(    7) = (   0.3981145   0.1456193   0.1151141), wk =   0.0416667
        k(    8) = (   0.3981909   0.1456188   0.3450800), wk =   0.0416667
        k(    9) = (   0.3981147   0.4368578   0.1151134), wk =   0.0416667
        k(   10) = (   0.3981912   0.4368572   0.3450793), wk =   0.0416667
        k(   11) = (   0.3981150   0.7280963   0.1151127), wk =   0.0416667
        k(   12) = (   0.3981915   0.7280957   0.3450786), wk =   0.0416667
        k(   13) = (  -0.1326539  -0.1456196   0.1149395), wk =   0.0416667
        k(   14) = (  -0.1327301   0.1456194  -0.1150271), wk =   0.0416667
        k(   15) = (   0.1326537  -0.1456188  -0.1149388), wk =   0.0416667
        k(   16) = (  -0.1325775  -0.1456202   0.3449053), wk =   0.0416667
        k(   17) = (  -0.1328066   0.1456199  -0.3449930), wk =   0.0416667
        k(   18) = (   0.1325772  -0.1456183  -0.3449047), wk =   0.0416667
        k(   19) = (  -0.1326542  -0.4368581   0.1149402), wk =   0.0416667
        k(   20) = (  -0.1327299   0.4368579  -0.1150278), wk =   0.0416667
        k(   21) = (   0.1326534  -0.4368573  -0.1149381), wk =   0.0416667
        k(   22) = (  -0.1325777  -0.4368587   0.3449060), wk =   0.0416667
        k(   23) = (  -0.1328063   0.4368584  -0.3449937), wk =   0.0416667
        k(   24) = (   0.1325769  -0.4368568  -0.3449040), wk =   0.0416667
        k(   25) = (  -0.1326545  -0.7280966   0.1149408), wk =   0.0416667
        k(   26) = (  -0.1327296   0.7280963  -0.1150285), wk =   0.0416667
        k(   27) = (   0.1326531  -0.7280958  -0.1149374), wk =   0.0416667
        k(   28) = (  -0.1325780  -0.7280971   0.3449067), wk =   0.0416667
        k(   29) = (  -0.1328061   0.7280969  -0.3449944), wk =   0.0416667
        k(   30) = (   0.1325767  -0.7280952  -0.3449033), wk =   0.0416667
        k(   31) = (  -0.3980380  -0.1456199   0.1148518), wk =   0.0416667
        k(   32) = (  -0.3981142   0.1456192  -0.1151148), wk =   0.0416667
        k(   33) = (   0.3980377  -0.1456186  -0.1148511), wk =   0.0416667
        k(   34) = (  -0.3979615  -0.1456204   0.3448177), wk =   0.0416667
        k(   35) = (  -0.3981907   0.1456197  -0.3450807), wk =   0.0416667
        k(   36) = (   0.3979613  -0.1456181  -0.3448170), wk =   0.0416667
        k(   37) = (  -0.3980383  -0.4368583   0.1148525), wk =   0.0416667
        k(   38) = (  -0.3981139   0.4368576  -0.1151155), wk =   0.0416667
        k(   39) = (   0.3980375  -0.4368571  -0.1148504), wk =   0.0416667
        k(   40) = (  -0.3979618  -0.4368589   0.3448184), wk =   0.0416667
        k(   41) = (  -0.3981904   0.4368582  -0.3450814), wk =   0.0416667
        k(   42) = (   0.3979610  -0.4368565  -0.3448163), wk =   0.0416667
        k(   43) = (  -0.3980385  -0.7280968   0.1148532), wk =   0.0416667
        k(   44) = (  -0.3981137   0.7280961  -0.1151162), wk =   0.0416667
        k(   45) = (   0.3980372  -0.7280956  -0.1148497), wk =   0.0416667
        k(   46) = (  -0.3979621  -0.7280974   0.3448191), wk =   0.0416667
        k(   47) = (  -0.3981901   0.7280967  -0.3450821), wk =   0.0416667
        k(   48) = (   0.3979607  -0.7280950  -0.3448156), wk =   0.0416667
     extrapolated charge   44.28674, renormalised to   48.00000

     total cpu time spent up to now is     3776.1 secs

     per-process dynamical memory:   102.5 Mb

     Self-consistent Calculation

     iteration #  1     ecut=   120.00 Ry     beta=0.30
     Davidson diagonalization with overlap
     ethr =  1.00E-06,  avg # of iterations =  8.0

     total cpu time spent up to now is     4244.4 secs

     total energy              =    -302.59171700 Ry
     Harris-Foulkes estimate   =    -306.83687166 Ry
     estimated scf accuracy    <       0.33118854 Ry

     iteration #  2     ecut=   120.00 Ry     beta=0.30
     Davidson diagonalization with overlap
     ethr =  6.90E-04,  avg # of iterations =  3.0

     total cpu time spent up to now is     4468.8 secs

     total energy              =    -302.93285351 Ry
     Harris-Foulkes estimate   =    -302.91971206 Ry
     estimated scf accuracy    <       0.00606277 Ry

     iteration #  3     ecut=   120.00 Ry     beta=0.30
     Davidson diagonalization with overlap
     ethr =  1.26E-05,  avg # of iterations =  1.8

     total cpu time spent up to now is     4612.4 secs

     total energy              =    -302.95816752 Ry
     Harris-Foulkes estimate   =    -302.93327680 Ry
     estimated scf accuracy    <       0.00393818 Ry

     iteration #  4     ecut=   120.00 Ry     beta=0.30
     Davidson diagonalization with overlap
     ethr =  8.20E-06,  avg # of iterations =  2.1

     total cpu time spent up to now is     4802.6 secs

     total energy              =    -302.95850523 Ry
     Harris-Foulkes estimate   =    -302.95869431 Ry
     estimated scf accuracy    <       0.00031300 Ry

     iteration #  5     ecut=   120.00 Ry     beta=0.30
     Davidson diagonalization with overlap
     ethr =  6.52E-07,  avg # of iterations =  3.0

     total cpu time spent up to now is     4974.1 secs

     total energy              =    -302.95863940 Ry
     Harris-Foulkes estimate   =    -302.95855727 Ry
     estimated scf accuracy    <       0.00007483 Ry

     iteration #  6     ecut=   120.00 Ry     beta=0.30
     Davidson diagonalization with overlap
     ethr =  1.56E-07,  avg # of iterations =  2.7

     total cpu time spent up to now is     5163.1 secs

     total energy              =    -302.95865265 Ry
     Harris-Foulkes estimate   =    -302.95865096 Ry
     estimated scf accuracy    <       0.00000813 Ry

     iteration #  7     ecut=   120.00 Ry     beta=0.30
     Davidson diagonalization with overlap
     ethr =  1.69E-08,  avg # of iterations =  2.2

     total cpu time spent up to now is     5332.3 secs

     total energy              =    -302.95870354 Ry
     Harris-Foulkes estimate   =    -302.95865379 Ry
     estimated scf accuracy    <       0.00000044 Ry

     iteration #  8     ecut=   120.00 Ry     beta=0.30
     Davidson diagonalization with overlap
     ethr =  9.17E-10,  avg # of iterations =  3.8

     total cpu time spent up to now is     5559.4 secs

     total energy              =    -302.95871290 Ry
     Harris-Foulkes estimate   =    -302.95870371 Ry
     estimated scf accuracy    <       0.00000016 Ry

     iteration #  9     ecut=   120.00 Ry     beta=0.30
     Davidson diagonalization with overlap
     ethr =  3.41E-10,  avg # of iterations =  3.0

     total cpu time spent up to now is     5773.6 secs

     total energy              =    -302.95871756 Ry
     Harris-Foulkes estimate   =    -302.95871296 Ry
     estimated scf accuracy    <       0.00000016 Ry

     iteration # 10     ecut=   120.00 Ry     beta=0.30
