
     Program PWSCF v.5.0.2 (svn rev. 9392) starts on  3Jun2014 at 17:58:19 

     This program is part of the open-source Quantum ESPRESSO suite
     for quantum simulation of materials; please cite
         "P. Giannozzi et al., J. Phys.:Condens. Matter 21 395502 (2009);
          URL http://www.quantum-espresso.org", 
     in publications or presentations arising from this work. More details at
     http://www.quantum-espresso.org/quote.php

     Serial version

     Current dimensions of program PWSCF are:
     Max number of different atomic species (ntypx) = 10
     Max number of k-points (npk) =  40000
     Max angular momentum in pseudopotentials (lmaxx) =  3
     Waiting for input...
     Reading input from standard input

     G-vector sticks info
     --------------------
     sticks:   dense  smooth     PW     G-vecs:    dense   smooth      PW
     Sum         983     983    291                34015    34015    5283



     bravais-lattice index     =            8
     lattice parameter (alat)  =      11.2803  a.u.
     unit-cell volume          =     994.0292 (a.u.)^3
     number of atoms/cell      =           12
     number of atomic types    =            2
     number of electrons       =        48.00
     number of Kohn-Sham states=           24
     kinetic-energy cutoff     =      40.0000  Ry
     charge density cutoff     =     160.0000  Ry
     convergence threshold     =      1.0E-06
     mixing beta               =       0.3000
     number of iterations used =           16  local-TF  mixing
     Exchange-correlation      = PBE ( 1 4 3 4 0)
     EXX-fraction              =        0.00
     nstep                     =           50


     celldm(1)=  11.280300  celldm(2)=   0.604300  celldm(3)=   1.146000
     celldm(4)=   0.000000  celldm(5)=   0.000000  celldm(6)=   0.000000

     crystal axes: (cart. coord. in units of alat)
               a(1) = (   1.000000   0.000000   0.000000 )  
               a(2) = (   0.000000   0.604300   0.000000 )  
               a(3) = (   0.000000   0.000000   1.146000 )  

     reciprocal axes: (cart. coord. in units 2 pi/alat)
               b(1) = (  1.000000  0.000000  0.000000 )  
               b(2) = (  0.000000  1.654807  0.000000 )  
               b(3) = (  0.000000  0.000000  0.872600 )  


     PseudoPot. # 1 for H  read from file:
     /home/ilia/espresso/pseudo/H.pbe-sp-mt.ncpp
     MD5 check sum: 7a641936b52ccecd26bd1ad87cca5aed
     Pseudo is Norm-conserving, Zval =  1.0
     Generated by old ld1 code (numerical format)
     Using radial grid of 1076 points,  0 beta functions with: 

     PseudoPot. # 2 for Ca read from file:
     /home/ilia/espresso/pseudo/Ca.pbe-sp-mt_ion2.ncpp
     MD5 check sum: 4bcd670d05521f7b178fdf0a334578ab
     Pseudo is Norm-conserving, Zval = 10.0
     Generated by old ld1 code (numerical format)
     Using radial grid of 1153 points,  1 beta functions with: 
                l(1) =   1

     atomic species   valence    mass     pseudopotential
        H              1.00     1.00700     H ( 1.00)
        Ca            10.00    40.07800     Ca( 1.00)

     No symmetry found
          (note:  1 additional sym.ops. were found but ignored
           their fractional translations are incommensurate with FFT grid)


   Cartesian axes

     site n.     atom                  positions (alat units)
         1           Ca  tau(   1) = (   0.2400000   0.1510750   0.1259454  )
         2           Ca  tau(   2) = (   0.2600000  -0.1510750   0.6989454  )
         3           Ca  tau(   3) = (   0.7400000   0.1510750   0.4470546  )
         4           Ca  tau(   4) = (  -0.2400000  -0.1510750  -0.1259454  )
         5           H   tau(   5) = (   0.3557000   0.1510750   0.4887690  )
         6           H   tau(   6) = (   0.1443000  -0.1510750   1.0617690  )
         7           H   tau(   7) = (   0.8557000   0.1510750   0.0842310  )
         8           H   tau(   8) = (  -0.3557000  -0.1510750  -0.4922070  )
         9           H   tau(   9) = (   0.9754000   0.1510750   0.7752690  )
        10           H   tau(  10) = (  -0.4754000  -0.1510750   1.3482690  )
        11           H   tau(  11) = (   1.4754000   0.1510750  -0.1988310  )
        12           H   tau(  12) = (  -0.9754000  -0.1510750  -0.7752690  )

     number of k points=   108

     Number of k-points >= 100: set verbosity='high' to print them.

     Dense  grid:    34015 G-vectors     FFT dimensions: (  45,  27,  54)

     Largest allocated arrays     est. size (Mb)     dimensions
        Kohn-Sham Wavefunctions         1.56 Mb     (   4268,   24)
        NL pseudopotentials             0.78 Mb     (   4268,   12)
        Each V/rho on FFT grid          1.00 Mb     (  65610)
        Each G-vector array             0.26 Mb     (  34015)
        G-vector shells                 0.26 Mb     (  34015)
     Largest temporary arrays     est. size (Mb)     dimensions
        Auxiliary wavefunctions         6.25 Mb     (   4268,   96)
        Each subspace H/S matrix        0.14 Mb     (  96,  96)
        Each <psi_i|beta_j> matrix      0.00 Mb     (     12,   24)
        Arrays for rho mixing          16.02 Mb     (  65610,  16)

     Initial potential from superposition of free atoms

     starting charge   39.99992, renormalised to   48.00000
     Starting wfc are   24 randomized atomic wfcs

     total cpu time spent up to now is       51.0 secs

     per-process dynamical memory:    17.1 Mb

     Self-consistent Calculation

     iteration #  1     ecut=    40.00 Ry     beta=0.30
     Davidson diagonalization with overlap
     ethr =  1.00E-02,  avg # of iterations =  2.0

     total cpu time spent up to now is      125.8 secs

     total energy              =    -306.47248621 Ry
     Harris-Foulkes estimate   =    -308.75457630 Ry
     estimated scf accuracy    <      11.56521712 Ry

     iteration #  2     ecut=    40.00 Ry     beta=0.30
     Davidson diagonalization with overlap
     ethr =  1.00E-02,  avg # of iterations =  1.0

     total cpu time spent up to now is      174.1 secs

     total energy              =    -301.79593211 Ry
     Harris-Foulkes estimate   =    -306.59728518 Ry
     estimated scf accuracy    <       7.06306850 Ry

     iteration #  3     ecut=    40.00 Ry     beta=0.30
     Davidson diagonalization with overlap
     ethr =  1.00E-02,  avg # of iterations =  2.0

     total cpu time spent up to now is      242.1 secs

     total energy              =    -303.04582892 Ry
     Harris-Foulkes estimate   =    -303.07523321 Ry
     estimated scf accuracy    <       0.35070893 Ry

     iteration #  4     ecut=    40.00 Ry     beta=0.30
     Davidson diagonalization with overlap
     ethr =  7.31E-04,  avg # of iterations =  1.0

     total cpu time spent up to now is      286.1 secs

     total energy              =    -303.03333580 Ry
     Harris-Foulkes estimate   =    -303.05071658 Ry
     estimated scf accuracy    <       0.22564052 Ry

     iteration #  5     ecut=    40.00 Ry     beta=0.30
     Davidson diagonalization with overlap
     ethr =  4.70E-04,  avg # of iterations =  2.0

     total cpu time spent up to now is      337.9 secs

     total energy              =    -303.05082388 Ry
     Harris-Foulkes estimate   =    -303.05148951 Ry
     estimated scf accuracy    <       0.00813008 Ry

     iteration #  6     ecut=    40.00 Ry     beta=0.30
     Davidson diagonalization with overlap
     ethr =  1.69E-05,  avg # of iterations =  2.0

     total cpu time spent up to now is      383.8 secs

     total energy              =    -303.05162876 Ry
     Harris-Foulkes estimate   =    -303.05116958 Ry
     estimated scf accuracy    <       0.00439837 Ry

     iteration #  7     ecut=    40.00 Ry     beta=0.30
     Davidson diagonalization with overlap
     ethr =  9.16E-06,  avg # of iterations =  2.0

     total cpu time spent up to now is      439.0 secs

     total energy              =    -303.05126173 Ry
     Harris-Foulkes estimate   =    -303.05203494 Ry
     estimated scf accuracy    <       0.00122909 Ry

     iteration #  8     ecut=    40.00 Ry     beta=0.30
     Davidson diagonalization with overlap
     ethr =  2.56E-06,  avg # of iterations =  2.0

     total cpu time spent up to now is      510.5 secs

     total energy              =    -303.05151233 Ry
     Harris-Foulkes estimate   =    -303.05150480 Ry
     estimated scf accuracy    <       0.00002034 Ry

     iteration #  9     ecut=    40.00 Ry     beta=0.30
     Davidson diagonalization with overlap
     ethr =  4.24E-08,  avg # of iterations =  2.5

     total cpu time spent up to now is      561.7 secs

     total energy              =    -303.05150804 Ry
     Harris-Foulkes estimate   =    -303.05151586 Ry
     estimated scf accuracy    <       0.00002959 Ry

     iteration # 10     ecut=    40.00 Ry     beta=0.30
     Davidson diagonalization with overlap
     ethr =  4.24E-08,  avg # of iterations =  2.0

     total cpu time spent up to now is      617.5 secs

     End of self-consistent calculation

     Number of k-points >= 100: set verbosity='high' to print the bands.

!    total energy              =    -303.05150952 Ry
     Harris-Foulkes estimate   =    -303.05150979 Ry
     estimated scf accuracy    <       0.00000075 Ry

     The total energy is the sum of the following terms:

     one-electron contribution =    -121.74451130 Ry
     hartree contribution      =      68.07615896 Ry
     xc contribution           =     -46.61644453 Ry
     ewald contribution        =    -202.76671266 Ry

     convergence has been achieved in  10 iterations

     Forces acting on atoms (Ry/au):

     atom    1 type  2   force =    -0.00033836   -0.00114419   -0.00043883
     atom    2 type  2   force =    -0.00161341    0.00070798   -0.00142378
     atom    3 type  2   force =     0.00197308   -0.00070823   -0.00060445
     atom    4 type  2   force =    -0.00015704    0.00114508    0.00071155
     atom    5 type  1   force =    -0.00046958    0.00000139    0.00084641
     atom    6 type  1   force =     0.00029097   -0.00000126    0.00024858
     atom    7 type  1   force =    -0.00023970    0.00000111   -0.00049480
     atom    8 type  1   force =     0.00007765   -0.00000159    0.00326895
     atom    9 type  1   force =    -0.00011854    0.00000033    0.00001349
     atom   10 type  1   force =    -0.00009196   -0.00000187   -0.00002380
     atom   11 type  1   force =     0.00055668    0.00000174   -0.00216227
     atom   12 type  1   force =     0.00013020   -0.00000048    0.00005894

     Total force =     0.005519     Total SCF correction =     0.000252


     entering subroutine stress ...

          total   stress  (Ry/bohr**3)                   (kbar)     P=    9.75
   0.00006905   0.00000003  -0.00000125         10.16      0.00     -0.18
   0.00000003   0.00006412   0.00000001          0.00      9.43      0.00
  -0.00000125   0.00000001   0.00006562         -0.18      0.00      9.65


     BFGS Geometry Optimization

     number of scf cycles    =   1
     number of bfgs steps    =   0

     enthalpy new            =    -303.0515095237 Ry

     new trust radius        =       0.0108876686 bohr
     new conv_thr            =       0.0000010000 Ry

     new unit-cell volume =    998.97770 a.u.^3 (   148.03322 Ang^3 )

CELL_PARAMETERS (alat= 11.28030000)
   1.001726369   0.000000735  -0.000031358
   0.000000444   0.605268737   0.000000214
  -0.000035937   0.000000406   1.147880016

ATOMIC_POSITIONS (crystal)
Ca       0.239970004   0.249832148   0.109866054
Ca       0.259856971  -0.249896140   0.609789862
Ca       0.740174914   0.249896103   0.390053242
Ca      -0.240013921  -0.249832018  -0.109844957
H        0.355658372   0.250000203   0.426565475
H        0.144325795  -0.250000185   0.926519229
H        0.855678751   0.250000162   0.073461724
H       -0.355693117  -0.250000233  -0.429247127
H        0.975389492   0.250000049   0.676501044
H       -0.475408152  -0.250000274   1.176498159
H        1.475449350   0.250000255  -0.173667265
H       -0.975388458  -0.250000070  -0.676495440



     Writing output data file CaH2_ambient.save
     NEW-OLD atomic charge density approx. for the potential
     NEW k-points: (use verbosity='high' to print them)
     extrapolated charge   48.19814, renormalised to   48.00000

     total cpu time spent up to now is      710.2 secs

     per-process dynamical memory:    23.0 Mb

     Self-consistent Calculation

     iteration #  1     ecut=    40.00 Ry     beta=0.30
     Davidson diagonalization with overlap
     ethr =  1.00E-06,  avg # of iterations =  3.0

     total cpu time spent up to now is      800.5 secs

     total energy              =    -303.05107554 Ry
     Harris-Foulkes estimate   =    -302.73748355 Ry
     estimated scf accuracy    <       0.00108301 Ry

     iteration #  2     ecut=    40.00 Ry     beta=0.30
     Davidson diagonalization with overlap
     ethr =  2.26E-06,  avg # of iterations =  2.0

     total cpu time spent up to now is      867.6 secs

     total energy              =    -303.05180951 Ry
     Harris-Foulkes estimate   =    -303.05181942 Ry
     estimated scf accuracy    <       0.00004973 Ry

     iteration #  3     ecut=    40.00 Ry     beta=0.30
     Davidson diagonalization with overlap
     ethr =  1.04E-07,  avg # of iterations =  1.1

     total cpu time spent up to now is      910.5 secs

     total energy              =    -303.05179040 Ry
     Harris-Foulkes estimate   =    -303.05181076 Ry
     estimated scf accuracy    <       0.00003143 Ry

     iteration #  4     ecut=    40.00 Ry     beta=0.30
     Davidson diagonalization with overlap
     ethr =  6.55E-08,  avg # of iterations =  2.0

     total cpu time spent up to now is      974.5 secs

     total energy              =    -303.05179626 Ry
     Harris-Foulkes estimate   =    -303.05179638 Ry
     estimated scf accuracy    <       0.00000168 Ry

     iteration #  5     ecut=    40.00 Ry     beta=0.30
     Davidson diagonalization with overlap
     ethr =  3.50E-09,  avg # of iterations =  1.3

     total cpu time spent up to now is     1017.3 secs

     End of self-consistent calculation

     Number of k-points >= 100: set verbosity='high' to print the bands.

!    total energy              =    -303.05179628 Ry
     Harris-Foulkes estimate   =    -303.05179631 Ry
     estimated scf accuracy    <       0.00000053 Ry

     The total energy is the sum of the following terms:

     one-electron contribution =    -122.24829450 Ry
     hartree contribution      =      68.23147673 Ry
     xc contribution           =     -46.60152230 Ry
     ewald contribution        =    -202.43345620 Ry

     convergence has been achieved in   5 iterations

     Forces acting on atoms (Ry/au):

     atom    1 type  2   force =    -0.00031685   -0.00101780   -0.00061768
     atom    2 type  2   force =    -0.00126384    0.00061520   -0.00130273
     atom    3 type  2   force =     0.00148639   -0.00061482   -0.00024145
     atom    4 type  2   force =    -0.00008222    0.00102459    0.00075956
     atom    5 type  1   force =    -0.00037788    0.00002871    0.00069793
     atom    6 type  1   force =     0.00019961   -0.00004983    0.00021827
     atom    7 type  1   force =    -0.00013916    0.00004830   -0.00045546
     atom    8 type  1   force =     0.00007244   -0.00003167    0.00289818
     atom    9 type  1   force =    -0.00009322    0.00000318   -0.00011275
     atom   10 type  1   force =    -0.00006004   -0.00000814   -0.00012329
     atom   11 type  1   force =     0.00047047    0.00000692   -0.00184958
     atom   12 type  1   force =     0.00010431   -0.00000463    0.00012901

     Total force =     0.004747     Total SCF correction =     0.000465


     entering subroutine stress ...

          total   stress  (Ry/bohr**3)                   (kbar)     P=    6.03
   0.00004356   0.00000016  -0.00000090          6.41      0.02     -0.13
   0.00000016   0.00003910   0.00000014          0.02      5.75      0.02
  -0.00000090   0.00000014   0.00004033         -0.13      0.02      5.93


     number of scf cycles    =   2
     number of bfgs steps    =   1

     enthalpy old            =    -303.0515095237 Ry
     enthalpy new            =    -303.0517962770 Ry

     CASE: enthalpy_new < enthalpy_old

     new trust radius        =       0.0119855041 bohr
     new conv_thr            =       0.0000000287 Ry

     new unit-cell volume =   1004.33664 a.u.^3 (   148.82733 Ang^3 )

CELL_PARAMETERS (alat= 11.28030000)
   1.003625274   0.000007649  -0.000070464
   0.000004623   0.606299590   0.000003924
  -0.000080750   0.000007442   1.149895820

ATOMIC_POSITIONS (crystal)
Ca       0.239921460   0.249573916   0.109783899
Ca       0.259662763  -0.249739996   0.609615649
Ca       0.740403495   0.249740052   0.390020299
Ca      -0.240026673  -0.249572088  -0.109743603
H        0.355600328   0.250007376   0.426658972
H        0.144356547  -0.250012630   0.926548437
H        0.855657233   0.250012226   0.073400820
H       -0.355682031  -0.250008147  -0.428859351
H        0.975375167   0.250000844   0.676486225
H       -0.475417412  -0.250002312   1.176481881
H        1.475521560   0.250001988  -0.173914885
H       -0.975372436  -0.250001227  -0.676478343



     Writing output data file CaH2_ambient.save
     NEW-OLD atomic charge density approx. for the potential
     NEW k-points: (use verbosity='high' to print them)
     extrapolated charge   48.21343, renormalised to   48.00000

     total cpu time spent up to now is     1108.6 secs

     per-process dynamical memory:    23.0 Mb

     Self-consistent Calculation

     iteration #  1     ecut=    40.00 Ry     beta=0.30
     Davidson diagonalization with overlap
     ethr =  1.00E-06,  avg # of iterations =  3.1

     total cpu time spent up to now is     1200.6 secs

     total energy              =    -303.05115977 Ry
     Harris-Foulkes estimate   =    -302.71177631 Ry
     estimated scf accuracy    <       0.00123684 Ry

     iteration #  2     ecut=    40.00 Ry     beta=0.30
     Davidson diagonalization with overlap
     ethr =  2.58E-06,  avg # of iterations =  2.0

     total cpu time spent up to now is     1269.2 secs

     total energy              =    -303.05201197 Ry
     Harris-Foulkes estimate   =    -303.05202284 Ry
     estimated scf accuracy    <       0.00005609 Ry

     iteration #  3     ecut=    40.00 Ry     beta=0.30
     Davidson diagonalization with overlap
     ethr =  1.17E-07,  avg # of iterations =  1.1

     total cpu time spent up to now is     1312.1 secs

     total energy              =    -303.05199087 Ry
     Harris-Foulkes estimate   =    -303.05201339 Ry
     estimated scf accuracy    <       0.00003560 Ry

     iteration #  4     ecut=    40.00 Ry     beta=0.30
     Davidson diagonalization with overlap
     ethr =  7.42E-08,  avg # of iterations =  2.0

     total cpu time spent up to now is     1373.0 secs

     total energy              =    -303.05199727 Ry
     Harris-Foulkes estimate   =    -303.05199741 Ry
     estimated scf accuracy    <       0.00000198 Ry

     iteration #  5     ecut=    40.00 Ry     beta=0.30
     Davidson diagonalization with overlap
     ethr =  4.12E-09,  avg # of iterations =  1.3

     total cpu time spent up to now is     1416.1 secs

     total energy              =    -303.05199727 Ry
     Harris-Foulkes estimate   =    -303.05199732 Ry
     estimated scf accuracy    <       0.00000067 Ry

     iteration #  6     ecut=    40.00 Ry     beta=0.30
     Davidson diagonalization with overlap
     ethr =  1.39E-09,  avg # of iterations =  1.0

     total cpu time spent up to now is     1458.7 secs

     End of self-consistent calculation

     Number of k-points >= 100: set verbosity='high' to print the bands.

!    total energy              =    -303.05199730 Ry
     Harris-Foulkes estimate   =    -303.05199730 Ry
     estimated scf accuracy    <       0.00000002 Ry

     The total energy is the sum of the following terms:

     one-electron contribution =    -122.79324100 Ry
     hartree contribution      =      68.40326616 Ry
     xc contribution           =     -46.58668623 Ry
     ewald contribution        =    -202.07533623 Ry

     convergence has been achieved in   6 iterations

     Forces acting on atoms (Ry/au):

     atom    1 type  2   force =    -0.00010548   -0.00080578   -0.00076568
     atom    2 type  2   force =    -0.00077845    0.00046689   -0.00105709
     atom    3 type  2   force =     0.00081614   -0.00046773    0.00022770
     atom    4 type  2   force =    -0.00014769    0.00082007    0.00070706
     atom    5 type  1   force =    -0.00025288    0.00006433    0.00046535
     atom    6 type  1   force =     0.00010074   -0.00011369    0.00014662
     atom    7 type  1   force =    -0.00003070    0.00011122   -0.00036318
     atom    8 type  1   force =     0.00006739   -0.00006957    0.00238171
     atom    9 type  1   force =    -0.00005299    0.00000413   -0.00026519
     atom   10 type  1   force =    -0.00002698   -0.00001415   -0.00022266
     atom   11 type  1   force =     0.00035568    0.00001165   -0.00145265
     atom   12 type  1   force =     0.00005520   -0.00000738    0.00019802

     Total force =     0.003725     Total SCF correction =     0.000238


     entering subroutine stress ...

          total   stress  (Ry/bohr**3)                   (kbar)     P=    2.98
   0.00002222   0.00000032  -0.00000050          3.27      0.05     -0.07
   0.00000032   0.00001908   0.00000031          0.05      2.81      0.05
  -0.00000050   0.00000031   0.00001937         -0.07      0.05      2.85


     number of scf cycles    =   3
     number of bfgs steps    =   2

     enthalpy old            =    -303.0517962770 Ry
     enthalpy new            =    -303.0519972989 Ry

     CASE: enthalpy_new < enthalpy_old

     new trust radius        =       0.0139710761 bohr
     new conv_thr            =       0.0000000201 Ry

     new unit-cell volume =   1010.49365 a.u.^3 (   149.73971 Ang^3 )

CELL_PARAMETERS (alat= 11.28030000)
   1.005836914   0.000028213  -0.000117875
   0.000017051   0.607473168   0.000015823
  -0.000135078   0.000030007   1.152171100

ATOMIC_POSITIONS (crystal)
Ca       0.239876207   0.249184418   0.109614044
Ca       0.259412102  -0.249510837   0.609348633
Ca       0.740679614   0.249510668   0.390040240
Ca      -0.240061915  -0.249177217  -0.109573248
H        0.355521569   0.250031318   0.426785492
H        0.144392061  -0.250054819   0.926588109
H        0.855639881   0.250053443   0.073308550
H       -0.355663404  -0.250034108  -0.428259798
H        0.975357535   0.250002544   0.676434626
H       -0.475427478  -0.250007814   1.176436565
H        1.475627331   0.250006543  -0.174286583
H       -0.975353504  -0.250004138  -0.676436632



     Writing output data file CaH2_ambient.save
     NEW-OLD atomic charge density approx. for the potential
     NEW k-points: (use verbosity='high' to print them)
     extrapolated charge   48.24372, renormalised to   48.00000

     total cpu time spent up to now is     1550.8 secs

     per-process dynamical memory:    23.0 Mb

     Self-consistent Calculation

     iteration #  1     ecut=    40.00 Ry     beta=0.30
     Davidson diagonalization with overlap
     ethr =  1.00E-06,  avg # of iterations =  3.2

     total cpu time spent up to now is     1641.9 secs

     total energy              =    -303.05098848 Ry
     Harris-Foulkes estimate   =    -302.66138621 Ry
     estimated scf accuracy    <       0.00162645 Ry

     iteration #  2     ecut=    40.00 Ry     beta=0.30
     Davidson diagonalization with overlap
     ethr =  3.39E-06,  avg # of iterations =  2.0

     total cpu time spent up to now is     1710.4 secs

     total energy              =    -303.05210315 Ry
     Harris-Foulkes estimate   =    -303.05211767 Ry
     estimated scf accuracy    <       0.00007581 Ry

     iteration #  3     ecut=    40.00 Ry     beta=0.30
     Davidson diagonalization with overlap
     ethr =  1.58E-07,  avg # of iterations =  1.1

     total cpu time spent up to now is     1753.1 secs

     total energy              =    -303.05207468 Ry
     Harris-Foulkes estimate   =    -303.05210501 Ry
     estimated scf accuracy    <       0.00004813 Ry

     iteration #  4     ecut=    40.00 Ry     beta=0.30
     Davidson diagonalization with overlap
     ethr =  1.00E-07,  avg # of iterations =  2.0

     total cpu time spent up to now is     1815.4 secs

     total energy              =    -303.05208341 Ry
     Harris-Foulkes estimate   =    -303.05208355 Ry
     estimated scf accuracy    <       0.00000266 Ry

     iteration #  5     ecut=    40.00 Ry     beta=0.30
     Davidson diagonalization with overlap
     ethr =  5.53E-09,  avg # of iterations =  1.4

     total cpu time spent up to now is     1858.6 secs

     total energy              =    -303.05208338 Ry
     Harris-Foulkes estimate   =    -303.05208348 Ry
     estimated scf accuracy    <       0.00000096 Ry

     iteration #  6     ecut=    40.00 Ry     beta=0.30
     Davidson diagonalization with overlap
     ethr =  1.99E-09,  avg # of iterations =  1.0

     total cpu time spent up to now is     1901.5 secs

     total energy              =    -303.05208343 Ry
     Harris-Foulkes estimate   =    -303.05208343 Ry
     estimated scf accuracy    <       0.00000002 Ry

     iteration #  7     ecut=    40.00 Ry     beta=0.30
     Davidson diagonalization with overlap
     ethr =  4.90E-11,  avg # of iterations =  3.0

     total cpu time spent up to now is     1957.3 secs

     End of self-consistent calculation

     Number of k-points >= 100: set verbosity='high' to print the bands.

!    total energy              =    -303.05208344 Ry
     Harris-Foulkes estimate   =    -303.05208344 Ry
     estimated scf accuracy    <          7.8E-09 Ry

     The total energy is the sum of the following terms:

     one-electron contribution =    -123.41312570 Ry
     hartree contribution      =      68.59786500 Ry
     xc contribution           =     -46.56952050 Ry
     ewald contribution        =    -201.66730224 Ry

     convergence has been achieved in   7 iterations

     Forces acting on atoms (Ry/au):

     atom    1 type  2   force =     0.00016415   -0.00051407   -0.00085791
     atom    2 type  2   force =    -0.00020878    0.00026563   -0.00067704
     atom    3 type  2   force =     0.00004004   -0.00027284    0.00073548
     atom    4 type  2   force =    -0.00022377    0.00053505    0.00059822
     atom    5 type  1   force =    -0.00009613    0.00010862    0.00012336
     atom    6 type  1   force =    -0.00001583   -0.00019196    0.00002827
     atom    7 type  1   force =     0.00008901    0.00019038   -0.00019508
     atom    8 type  1   force =     0.00005731   -0.00011343    0.00165213
     atom    9 type  1   force =     0.00001477    0.00000160   -0.00040652
     atom   10 type  1   force =     0.00000227   -0.00001827   -0.00029824
     atom   11 type  1   force =     0.00020209    0.00001558   -0.00094723
     atom   12 type  1   force =    -0.00002514   -0.00000629    0.00024457

     Total force =     0.002658     Total SCF correction =     0.000166


     entering subroutine stress ...

          total   stress  (Ry/bohr**3)                   (kbar)     P=   -0.65
  -0.00000358   0.00000047  -0.00000000         -0.53      0.07     -0.00
   0.00000047  -0.00000425   0.00000049          0.07     -0.63      0.07
  -0.00000000   0.00000049  -0.00000547         -0.00      0.07     -0.81


     number of scf cycles    =   4
     number of bfgs steps    =   3

     enthalpy old            =    -303.0519972989 Ry
     enthalpy new            =    -303.0520834354 Ry

     CASE: enthalpy_new < enthalpy_old

     new trust radius        =       0.0019968234 bohr
     new conv_thr            =       0.0000000100 Ry

     new unit-cell volume =   1010.46006 a.u.^3 (   149.73473 Ang^3 )

CELL_PARAMETERS (alat= 11.28030000)
   1.005854051   0.000040909  -0.000120090
   0.000024727   0.607466646   0.000023730
  -0.000137609   0.000044999   1.152125543

ATOMIC_POSITIONS (crystal)
Ca       0.239888967   0.249092497   0.109541021
Ca       0.259382481  -0.249462109   0.609285069
Ca       0.740695604   0.249460855   0.390097311
Ca      -0.240083459  -0.249082018  -0.109520045
H        0.355509598   0.250048172   0.426800457
H        0.144392322  -0.250084595   0.926591944
H        0.855646840   0.250082956   0.073289637
H       -0.355657556  -0.250051727  -0.428106523
H        0.975358100   0.250002828   0.676401287
H       -0.475427772  -0.250010695   1.176411833
H        1.475649814   0.250008994  -0.174375849
H       -0.975354938  -0.250005156  -0.676416141



     Writing output data file CaH2_ambient.save
     NEW-OLD atomic charge density approx. for the potential
     NEW k-points: (use verbosity='high' to print them)
     extrapolated charge   47.99867, renormalised to   48.00000

     total cpu time spent up to now is     2048.2 secs

     per-process dynamical memory:    23.0 Mb

     Self-consistent Calculation

     iteration #  1     ecut=    40.00 Ry     beta=0.30
     Davidson diagonalization with overlap
     ethr =  1.00E-06,  avg # of iterations =  2.0

     Threshold (ethr) on eigenvalues was too large:
     Diagonalizing with lowered threshold

     Davidson diagonalization with overlap
     ethr =  4.53E-10,  avg # of iterations =  3.9

     total cpu time spent up to now is     2190.0 secs

     total energy              =    -303.05209161 Ry
     Harris-Foulkes estimate   =    -303.05421904 Ry
     estimated scf accuracy    <       0.00000048 Ry

     iteration #  2     ecut=    40.00 Ry     beta=0.30
     Davidson diagonalization with overlap
     ethr =  9.96E-10,  avg # of iterations =  2.0

     total cpu time spent up to now is     2242.2 secs

     total energy              =    -303.05209161 Ry
     Harris-Foulkes estimate   =    -303.05209165 Ry
     estimated scf accuracy    <       0.00000027 Ry

     iteration #  3     ecut=    40.00 Ry     beta=0.30
     Davidson diagonalization with overlap
     ethr =  5.71E-10,  avg # of iterations =  1.9

     total cpu time spent up to now is     2286.4 secs

     total energy              =    -303.05209159 Ry
     Harris-Foulkes estimate   =    -303.05209162 Ry
     estimated scf accuracy    <       0.00000007 Ry

     iteration #  4     ecut=    40.00 Ry     beta=0.30
     Davidson diagonalization with overlap
     ethr =  1.49E-10,  avg # of iterations =  2.0

     total cpu time spent up to now is     2336.8 secs

     End of self-consistent calculation

     Number of k-points >= 100: set verbosity='high' to print the bands.

!    total energy              =    -303.05209159 Ry
     Harris-Foulkes estimate   =    -303.05209160 Ry
     estimated scf accuracy    <          8.8E-09 Ry

     The total energy is the sum of the following terms:

     one-electron contribution =    -123.40910388 Ry
     hartree contribution      =      68.59668662 Ry
     xc contribution           =     -46.56964969 Ry
     ewald contribution        =    -201.67002464 Ry

     convergence has been achieved in   4 iterations

     Forces acting on atoms (Ry/au):

     atom    1 type  2   force =     0.00020643   -0.00045192   -0.00078799
     atom    2 type  2   force =    -0.00015016    0.00022760   -0.00057703
     atom    3 type  2   force =     0.00000060   -0.00023843    0.00075086
     atom    4 type  2   force =    -0.00024487    0.00047711    0.00052558
     atom    5 type  1   force =    -0.00007524    0.00011237    0.00005342
     atom    6 type  1   force =    -0.00002195   -0.00019866   -0.00001636
     atom    7 type  1   force =     0.00008329    0.00019773   -0.00013988
     atom    8 type  1   force =     0.00004957   -0.00011751    0.00150183
     atom    9 type  1   force =     0.00003257   -0.00000072   -0.00037604
     atom   10 type  1   force =    -0.00000628   -0.00001869   -0.00026341
     atom   11 type  1   force =     0.00017551    0.00001571   -0.00088887
     atom   12 type  1   force =    -0.00004945   -0.00000461    0.00021789

     Total force =     0.002438     Total SCF correction =     0.000234


     entering subroutine stress ...

          total   stress  (Ry/bohr**3)                   (kbar)     P=   -0.60
  -0.00000366   0.00000046   0.00000008         -0.54      0.07      0.01
   0.00000046  -0.00000355   0.00000048          0.07     -0.52      0.07
   0.00000008   0.00000048  -0.00000510          0.01      0.07     -0.75


     number of scf cycles    =   5
     number of bfgs steps    =   4

     enthalpy old            =    -303.0520834354 Ry
     enthalpy new            =    -303.0520915936 Ry

     CASE: enthalpy_new < enthalpy_old


     WARNING: bfgs curvature condition failed, Theta= 0.879
     new trust radius        =       0.0029951118 bohr
     new conv_thr            =       0.0000000100 Ry

     new unit-cell volume =   1010.36903 a.u.^3 (   149.72124 Ang^3 )

CELL_PARAMETERS (alat= 11.28030000)
   1.005855255   0.000060951  -0.000120620
   0.000036844   0.607456469   0.000036405
  -0.000138206   0.000069034   1.152039666

ATOMIC_POSITIONS (crystal)
Ca       0.239915043   0.248957688   0.109430107
Ca       0.259343250  -0.249391830   0.609193628
Ca       0.740714403   0.249388135   0.390192053
Ca      -0.240120688  -0.248941116  -0.109441857
H        0.355493187   0.250076204   0.426816771
H        0.144391675  -0.250134136   0.926593433
H        0.855657783   0.250132197   0.073265050
H       -0.355649050  -0.250081051  -0.427876701
H        0.975361205   0.250002845   0.676350236
H       -0.475429105  -0.250015437   1.176375228
H        1.475682510   0.250012982  -0.174512304
H       -0.975360213  -0.250006482  -0.676385644



     Writing output data file CaH2_ambient.save
     NEW-OLD atomic charge density approx. for the potential
     NEW k-points: (use verbosity='high' to print them)
     extrapolated charge   47.99640, renormalised to   48.00000

     total cpu time spent up to now is     2427.5 secs

     per-process dynamical memory:    23.0 Mb

     Self-consistent Calculation

     iteration #  1     ecut=    40.00 Ry     beta=0.30
     Davidson diagonalization with overlap
     ethr =  1.00E-06,  avg # of iterations =  2.5

     Threshold (ethr) on eigenvalues was too large:
     Diagonalizing with lowered threshold

     Davidson diagonalization with overlap
     ethr =  2.16E-09,  avg # of iterations =  3.0

     total cpu time spent up to now is     2558.8 secs

     total energy              =    -303.05210257 Ry
     Harris-Foulkes estimate   =    -303.05786860 Ry
     estimated scf accuracy    <       0.00000130 Ry

     iteration #  2     ecut=    40.00 Ry     beta=0.30
     Davidson diagonalization with overlap
     ethr =  2.71E-09,  avg # of iterations =  2.0

     total cpu time spent up to now is     2618.7 secs

     total energy              =    -303.05210275 Ry
     Harris-Foulkes estimate   =    -303.05210281 Ry
     estimated scf accuracy    <       0.00000062 Ry

     iteration #  3     ecut=    40.00 Ry     beta=0.30
     Davidson diagonalization with overlap
     ethr =  1.30E-09,  avg # of iterations =  1.0

     total cpu time spent up to now is     2661.3 secs

     total energy              =    -303.05210267 Ry
     Harris-Foulkes estimate   =    -303.05210276 Ry
     estimated scf accuracy    <       0.00000027 Ry

     iteration #  4     ecut=    40.00 Ry     beta=0.30
     Davidson diagonalization with overlap
     ethr =  5.71E-10,  avg # of iterations =  2.0

     total cpu time spent up to now is     2712.3 secs

     total energy              =    -303.05210270 Ry
     Harris-Foulkes estimate   =    -303.05210270 Ry
     estimated scf accuracy    <       0.00000002 Ry

     iteration #  5     ecut=    40.00 Ry     beta=0.30
     Davidson diagonalization with overlap
     ethr =  4.00E-11,  avg # of iterations =  1.5

     total cpu time spent up to now is     2755.8 secs

     End of self-consistent calculation

     Number of k-points >= 100: set verbosity='high' to print the bands.

!    total energy              =    -303.05210269 Ry
     Harris-Foulkes estimate   =    -303.05210270 Ry
     estimated scf accuracy    <          9.2E-09 Ry

     The total energy is the sum of the following terms:

     one-electron contribution =    -123.39872440 Ry
     hartree contribution      =      68.59340847 Ry
     xc contribution           =     -46.56995676 Ry
     ewald contribution        =    -201.67683000 Ry

     convergence has been achieved in   5 iterations

     Forces acting on atoms (Ry/au):

     atom    1 type  2   force =     0.00023056   -0.00035951   -0.00067956
     atom    2 type  2   force =    -0.00011612    0.00016341   -0.00042555
     atom    3 type  2   force =    -0.00004068   -0.00017543    0.00071152
     atom    4 type  2   force =    -0.00021803    0.00037883    0.00045870
     atom    5 type  1   force =    -0.00005064    0.00011683   -0.00004480
     atom    6 type  1   force =    -0.00002675   -0.00020516   -0.00007188
     atom    7 type  1   force =     0.00007496    0.00020711   -0.00006141
     atom    8 type  1   force =     0.00004369   -0.00012054    0.00128807
     atom    9 type  1   force =     0.00005997   -0.00000419   -0.00032930
     atom   10 type  1   force =    -0.00001941   -0.00001731   -0.00021843
     atom   11 type  1   force =     0.00014212    0.00001640   -0.00080509
     atom   12 type  1   force =    -0.00007966   -0.00000043    0.00017773

     Total force =     0.002113     Total SCF correction =     0.000259
     SCF correction compared to forces is large: reduce conv_thr to get better values


     entering subroutine stress ...

          total   stress  (Ry/bohr**3)                   (kbar)     P=   -0.53
  -0.00000374   0.00000042   0.00000017         -0.55      0.06      0.02
   0.00000042  -0.00000258   0.00000046          0.06     -0.38      0.07
   0.00000017   0.00000046  -0.00000455          0.02      0.07     -0.67


     number of scf cycles    =   6
     number of bfgs steps    =   5

     enthalpy old            =    -303.0520915936 Ry
     enthalpy new            =    -303.0521026909 Ry

     CASE: enthalpy_new < enthalpy_old

     new trust radius        =       0.0044923213 bohr
     new conv_thr            =       0.0000000100 Ry

     new unit-cell volume =   1010.15360 a.u.^3 (   149.68932 Ang^3 )

CELL_PARAMETERS (alat= 11.28030000)
   1.005809266   0.000092613  -0.000116848
   0.000055988   0.607440668   0.000056880
  -0.000133867   0.000107859   1.151876667

ATOMIC_POSITIONS (crystal)
Ca       0.239963097   0.248762908   0.109262151
Ca       0.259287651  -0.249294828   0.609065857
Ca       0.740734186   0.249286769   0.390344962
Ca      -0.240178091  -0.248737732  -0.109323142
H        0.355471002   0.250123753   0.426828628
H        0.144389160  -0.250217831   0.926587827
H        0.855675182   0.250216128   0.073236068
H       -0.355636067  -0.250130366  -0.427532174
H        0.975370895   0.250001974   0.676271999
H       -0.475433124  -0.250022918   1.176320790
H        1.475730083   0.250019740  -0.174722239
H       -0.975373975  -0.250007597  -0.676340728



     Writing output data file CaH2_ambient.save
     NEW-OLD atomic charge density approx. for the potential
     NEW k-points: (use verbosity='high' to print them)
     extrapolated charge   47.99147, renormalised to   48.00000

     total cpu time spent up to now is     2847.7 secs

     per-process dynamical memory:    23.0 Mb

     Self-consistent Calculation

     iteration #  1     ecut=    40.00 Ry     beta=0.30
     Davidson diagonalization with overlap
     ethr =  1.00E-06,  avg # of iterations =  3.0

     Threshold (ethr) on eigenvalues was too large:
     Diagonalizing with lowered threshold

     Davidson diagonalization with overlap
     ethr =  8.15E-09,  avg # of iterations =  2.2

     total cpu time spent up to now is     2972.3 secs

     total energy              =    -303.05211569 Ry
     Harris-Foulkes estimate   =    -303.06576040 Ry
     estimated scf accuracy    <       0.00000417 Ry

     iteration #  2     ecut=    40.00 Ry     beta=0.30
     Davidson diagonalization with overlap
     ethr =  8.69E-09,  avg # of iterations =  2.0

     total cpu time spent up to now is     3039.3 secs

     total energy              =    -303.05211692 Ry
     Harris-Foulkes estimate   =    -303.05211707 Ry
     estimated scf accuracy    <       0.00000154 Ry

     iteration #  3     ecut=    40.00 Ry     beta=0.30
     Davidson diagonalization with overlap
     ethr =  3.21E-09,  avg # of iterations =  1.0

     total cpu time spent up to now is     3084.4 secs

     total energy              =    -303.05211663 Ry
     Harris-Foulkes estimate   =    -303.05211694 Ry
     estimated scf accuracy    <       0.00000084 Ry

     iteration #  4     ecut=    40.00 Ry     beta=0.30
     Davidson diagonalization with overlap
     ethr =  1.75E-09,  avg # of iterations =  2.0

     total cpu time spent up to now is     3134.9 secs

     total energy              =    -303.05211673 Ry
     Harris-Foulkes estimate   =    -303.05211673 Ry
     estimated scf accuracy    <       0.00000006 Ry

     iteration #  5     ecut=    40.00 Ry     beta=0.30
     Davidson diagonalization with overlap
     ethr =  1.15E-10,  avg # of iterations =  2.0

     total cpu time spent up to now is     3180.8 secs

     total energy              =    -303.05211672 Ry
     Harris-Foulkes estimate   =    -303.05211674 Ry
     estimated scf accuracy    <       0.00000003 Ry

     iteration #  6     ecut=    40.00 Ry     beta=0.30
     Davidson diagonalization with overlap
     ethr =  6.46E-11,  avg # of iterations =  2.0

     total cpu time spent up to now is     3232.6 secs

     End of self-consistent calculation

     Number of k-points >= 100: set verbosity='high' to print the bands.

!    total energy              =    -303.05211672 Ry
     Harris-Foulkes estimate   =    -303.05211672 Ry
     estimated scf accuracy    <          4.1E-09 Ry

     The total energy is the sum of the following terms:

     one-electron contribution =    -123.37511332 Ry
     hartree contribution      =      68.58590299 Ry
     xc contribution           =     -46.57061831 Ry
     ewald contribution        =    -201.69228809 Ry

     convergence has been achieved in   6 iterations

     Forces acting on atoms (Ry/au):

     atom    1 type  2   force =     0.00025101   -0.00023496   -0.00051074
     atom    2 type  2   force =    -0.00007167    0.00007954   -0.00024965
     atom    3 type  2   force =    -0.00008382   -0.00009374    0.00064490
     atom    4 type  2   force =    -0.00017545    0.00025544    0.00039066
     atom    5 type  1   force =    -0.00001335    0.00011761   -0.00018299
     atom    6 type  1   force =    -0.00003022   -0.00020764   -0.00014090
     atom    7 type  1   force =     0.00005902    0.00021128    0.00005542
     atom    8 type  1   force =     0.00003406   -0.00012181    0.00096057
     atom    9 type  1   force =     0.00010044   -0.00001061   -0.00025454
     atom   10 type  1   force =    -0.00003921   -0.00001603   -0.00014515
     atom   11 type  1   force =     0.00009247    0.00001576   -0.00068025
     atom   12 type  1   force =    -0.00012328    0.00000516    0.00011268

     Total force =     0.001683     Total SCF correction =     0.000146


     entering subroutine stress ...

          total   stress  (Ry/bohr**3)                   (kbar)     P=   -0.39
  -0.00000346   0.00000034   0.00000029         -0.51      0.05      0.04
   0.00000034  -0.00000108   0.00000041          0.05     -0.16      0.06
   0.00000029   0.00000041  -0.00000341          0.04      0.06     -0.50


     number of scf cycles    =   7
     number of bfgs steps    =   6

     enthalpy old            =    -303.0521026909 Ry
     enthalpy new            =    -303.0521167238 Ry

     CASE: enthalpy_new < enthalpy_old

     new trust radius        =       0.0067375002 bohr
     new conv_thr            =       0.0000000100 Ry

     new unit-cell volume =   1009.81932 a.u.^3 (   149.63978 Ang^3 )

CELL_PARAMETERS (alat= 11.28030000)
   1.005703768   0.000141373  -0.000103322
   0.000085473   0.607436459   0.000089407
  -0.000118338   0.000169532   1.151624293

ATOMIC_POSITIONS (crystal)
Ca       0.240047843   0.248479687   0.109009539
Ca       0.259206789  -0.249160749   0.608883566
Ca       0.740754791   0.249144773   0.390590542
Ca      -0.240266016  -0.248439937  -0.109137795
H        0.355441761   0.250203211   0.426825213
H        0.144383679  -0.250357990   0.926567204
H        0.855701879   0.250357207   0.073206917
H       -0.355616331  -0.250212867  -0.427015750
H        0.975394483   0.249998648   0.676153259
H       -0.475443121  -0.250034982   1.176241540
H        1.475799194   0.250030805  -0.175048120
H       -0.975404950  -0.250007806  -0.676276116



     Writing output data file CaH2_ambient.save
     NEW-OLD atomic charge density approx. for the potential
     NEW k-points: (use verbosity='high' to print them)
     extrapolated charge   47.98676, renormalised to   48.00000

     total cpu time spent up to now is     3324.4 secs

     per-process dynamical memory:    23.0 Mb

     Self-consistent Calculation

     iteration #  1     ecut=    40.00 Ry     beta=0.30
     Davidson diagonalization with overlap
     ethr =  1.00E-06,  avg # of iterations =  3.0

     Threshold (ethr) on eigenvalues was too large:
     Diagonalizing with lowered threshold

     Davidson diagonalization with overlap
     ethr =  2.00E-08,  avg # of iterations =  2.1

     total cpu time spent up to now is     3451.0 secs

     total energy              =    -303.05212913 Ry
     Harris-Foulkes estimate   =    -303.07330169 Ry
     estimated scf accuracy    <       0.00001020 Ry

     iteration #  2     ecut=    40.00 Ry     beta=0.30
     Davidson diagonalization with overlap
     ethr =  2.12E-08,  avg # of iterations =  2.0

     total cpu time spent up to now is     3517.9 secs

     total energy              =    -303.05213209 Ry
     Harris-Foulkes estimate   =    -303.05213246 Ry
     estimated scf accuracy    <       0.00000384 Ry

     iteration #  3     ecut=    40.00 Ry     beta=0.30
     Davidson diagonalization with overlap
     ethr =  8.00E-09,  avg # of iterations =  1.0

     total cpu time spent up to now is     3560.7 secs

     total energy              =    -303.05213131 Ry
     Harris-Foulkes estimate   =    -303.05213212 Ry
     estimated scf accuracy    <       0.00000214 Ry

     iteration #  4     ecut=    40.00 Ry     beta=0.30
     Davidson diagonalization with overlap
     ethr =  4.45E-09,  avg # of iterations =  2.0

     total cpu time spent up to now is     3611.1 secs

     total energy              =    -303.05213158 Ry
     Harris-Foulkes estimate   =    -303.05213157 Ry
     estimated scf accuracy    <       0.00000015 Ry

     iteration #  5     ecut=    40.00 Ry     beta=0.30
     Davidson diagonalization with overlap
     ethr =  3.21E-10,  avg # of iterations =  2.0

     total cpu time spent up to now is     3658.6 secs

     total energy              =    -303.05213155 Ry
     Harris-Foulkes estimate   =    -303.05213159 Ry
     estimated scf accuracy    <       0.00000009 Ry

     iteration #  6     ecut=    40.00 Ry     beta=0.30
     Davidson diagonalization with overlap
     ethr =  1.79E-10,  avg # of iterations =  2.0

     total cpu time spent up to now is     3708.8 secs

     End of self-consistent calculation

     Number of k-points >= 100: set verbosity='high' to print the bands.

!    total energy              =    -303.05213156 Ry
     Harris-Foulkes estimate   =    -303.05213156 Ry
     estimated scf accuracy    <          9.7E-09 Ry

     The total energy is the sum of the following terms:

     one-electron contribution =    -123.33855051 Ry
     hartree contribution      =      68.57429873 Ry
     xc contribution           =     -46.57164984 Ry
     ewald contribution        =    -201.71622994 Ry

     convergence has been achieved in   6 iterations

     Forces acting on atoms (Ry/au):

     atom    1 type  2   force =     0.00025777   -0.00005711   -0.00027363
     atom    2 type  2   force =    -0.00001445   -0.00003672   -0.00000214
     atom    3 type  2   force =    -0.00010555    0.00002001    0.00054324
     atom    4 type  2   force =    -0.00010588    0.00007312    0.00026888
     atom    5 type  1   force =     0.00003017    0.00011188   -0.00035278
     atom    6 type  1   force =    -0.00003038   -0.00019991   -0.00023145
     atom    7 type  1   force =     0.00002714    0.00020780    0.00021144
     atom    8 type  1   force =     0.00001791   -0.00011564    0.00048530
     atom    9 type  1   force =     0.00015609   -0.00002120   -0.00013584
     atom   10 type  1   force =    -0.00007214   -0.00001186   -0.00004346
     atom   11 type  1   force =     0.00002278    0.00001384   -0.00049436
     atom   12 type  1   force =    -0.00018345    0.00001578    0.00002480

     Total force =     0.001201     Total SCF correction =     0.000218
     SCF correction compared to forces is large: reduce conv_thr to get better values


     entering subroutine stress ...

          total   stress  (Ry/bohr**3)                   (kbar)     P=   -0.16
  -0.00000274   0.00000020   0.00000042         -0.40      0.03      0.06
   0.00000020   0.00000099   0.00000032          0.03      0.15      0.05
   0.00000042   0.00000032  -0.00000160          0.06      0.05     -0.24


     bfgs converged in   8 scf cycles and   7 bfgs steps
     (criteria: energy < 0.10E-03, force < 0.10E-02, cell < 0.50E+00)

     End of BFGS Geometry Optimization

     Final enthalpy =    -303.0521315606 Ry
Begin final coordinates
     new unit-cell volume =   1009.81932 a.u.^3 (   149.63978 Ang^3 )

CELL_PARAMETERS (alat= 11.28030000)
   1.005703768   0.000141373  -0.000103322
   0.000085473   0.607436459   0.000089407
  -0.000118338   0.000169532   1.151624293

ATOMIC_POSITIONS (crystal)
Ca       0.240047843   0.248479687   0.109009539
Ca       0.259206789  -0.249160749   0.608883566
Ca       0.740754791   0.249144773   0.390590542
Ca      -0.240266016  -0.248439937  -0.109137795
H        0.355441761   0.250203211   0.426825213
H        0.144383679  -0.250357990   0.926567204
H        0.855701879   0.250357207   0.073206917
H       -0.355616331  -0.250212867  -0.427015750
H        0.975394483   0.249998648   0.676153259
H       -0.475443121  -0.250034982   1.176241540
H        1.475799194   0.250030805  -0.175048120
H       -0.975404950  -0.250007806  -0.676276116
End final coordinates



     A final scf calculation at the relaxed structure.
     The G-vectors are recalculated for the final unit cell
     Results may differ from those at the preceding step.

     G-vector sticks info
     --------------------
     sticks:   dense  smooth     PW     G-vecs:    dense   smooth      PW
     Sum         983     983    295                34541    34541    5407



     bravais-lattice index     =            8
     lattice parameter (alat)  =      11.2803  a.u.
     unit-cell volume          =    1009.8193 (a.u.)^3
     number of atoms/cell      =           12
     number of atomic types    =            2
     number of electrons       =        48.00
     number of Kohn-Sham states=           24
     kinetic-energy cutoff     =      40.0000  Ry
     charge density cutoff     =     160.0000  Ry
     convergence threshold     =      1.0E-08
     mixing beta               =       0.3000
     number of iterations used =           16  local-TF  mixing
     Exchange-correlation      = PBE ( 1 4 3 4 0)
     EXX-fraction              =        0.00

     celldm(1)=  11.280300  celldm(2)=   0.604300  celldm(3)=   1.146000
     celldm(4)=   0.000000  celldm(5)=   0.000000  celldm(6)=   0.000000

     crystal axes: (cart. coord. in units of alat)
               a(1) = (   1.005704   0.000141  -0.000103 )  
               a(2) = (   0.000085   0.607436   0.000089 )  
               a(3) = (  -0.000118   0.000170   1.151624 )  

     reciprocal axes: (cart. coord. in units 2 pi/alat)
               b(1) = (  0.994329 -0.000140  0.000102 )  
               b(2) = ( -0.000231  1.646263 -0.000242 )  
               b(3) = (  0.000089 -0.000128  0.868339 )  


     PseudoPot. # 1 for H  read from file:
     /home/ilia/espresso/pseudo/H.pbe-sp-mt.ncpp
     MD5 check sum: 7a641936b52ccecd26bd1ad87cca5aed
     Pseudo is Norm-conserving, Zval =  1.0
     Generated by old ld1 code (numerical format)
     Using radial grid of 1076 points,  0 beta functions with: 

     PseudoPot. # 2 for Ca read from file:
     /home/ilia/espresso/pseudo/Ca.pbe-sp-mt_ion2.ncpp
     MD5 check sum: 4bcd670d05521f7b178fdf0a334578ab
     Pseudo is Norm-conserving, Zval = 10.0
     Generated by old ld1 code (numerical format)
     Using radial grid of 1153 points,  1 beta functions with: 
                l(1) =   1

     atomic species   valence    mass     pseudopotential
        H              1.00     1.00700     H ( 1.00)
        Ca            10.00    40.07800     Ca( 1.00)

     No symmetry found
          (note:  1 additional sym.ops. were found but ignored
           their fractional translations are incommensurate with FFT grid)


   Cartesian axes

     site n.     atom                  positions (alat units)
         1           Ca  tau(   1) = (   0.2414254   0.1509880   0.1255354  )
         2           Ca  tau(   2) = (   0.2605919  -0.1512095   0.7011560  )
         3           Ca  tau(   3) = (   0.7449550   0.1515106   0.4497593  )
         4           Ca  tau(   4) = (  -0.2416448  -0.1509639  -0.1256831  )
         5           H   tau(   5) = (   0.3574400   0.1521052   0.4915279  )
         6           H   tau(   6) = (   0.1450762  -0.1518991   1.0670200  )
         7           H   tau(   7) = (   0.8605953   0.1522095   0.0842408  )
         8           H   tau(   8) = (  -0.3576155  -0.1521111  -0.4917473  )
         9           H   tau(   9) = (   0.9808993   0.1521108   0.7785961  )
        10           H   tau(  10) = (  -0.4783155  -0.1517482   1.3546151  )
        11           H   tau(  11) = (   1.4842589   0.1520568  -0.2017198  )
        12           H   tau(  12) = (  -0.9809098  -0.1521164  -0.7787376  )

     number of k points=   108

     Number of k-points >= 100: set verbosity='high' to print them.

     Dense  grid:    34541 G-vectors     FFT dimensions: (  45,  27,  54)

     Largest allocated arrays     est. size (Mb)     dimensions
        Kohn-Sham Wavefunctions         1.59 Mb     (   4332,   24)
        NL pseudopotentials             0.79 Mb     (   4332,   12)
        Each V/rho on FFT grid          1.00 Mb     (  65610)
        Each G-vector array             0.26 Mb     (  34541)
        G-vector shells                 0.13 Mb     (  17271)
     Largest temporary arrays     est. size (Mb)     dimensions
        Auxiliary wavefunctions         6.35 Mb     (   4332,   96)
        Each subspace H/S matrix        0.14 Mb     (  96,  96)
        Each <psi_i|beta_j> matrix      0.00 Mb     (     12,   24)
        Arrays for rho mixing          16.02 Mb     (  65610,  16)

     Initial potential from superposition of free atoms

     starting charge   39.99992, renormalised to   48.00000
     Starting wfc are   24 randomized atomic wfcs

     Writing output data file CaH2_ambient.save

     total cpu time spent up to now is     3794.7 secs

     per-process dynamical memory:    21.8 Mb

     Self-consistent Calculation

     iteration #  1     ecut=    40.00 Ry     beta=0.30
     Davidson diagonalization with overlap
     ethr =  1.00E-06,  avg # of iterations =  5.0

     total cpu time spent up to now is     3931.9 secs

     total energy              =    -306.49216954 Ry
     Harris-Foulkes estimate   =    -308.77582282 Ry
     estimated scf accuracy    <      11.59926393 Ry

     iteration #  2     ecut=    40.00 Ry     beta=0.30
     Davidson diagonalization with overlap
     ethr =  1.00E-02,  avg # of iterations =  1.0

     total cpu time spent up to now is     3975.5 secs

     total energy              =    -301.81785012 Ry
     Harris-Foulkes estimate   =    -306.61594731 Ry
     estimated scf accuracy    <       7.07709326 Ry

     iteration #  3     ecut=    40.00 Ry     beta=0.30
     Davidson diagonalization with overlap
     ethr =  1.00E-02,  avg # of iterations =  2.0

     total cpu time spent up to now is     4045.2 secs

     total energy              =    -303.05000645 Ry
     Harris-Foulkes estimate   =    -303.08344322 Ry
     estimated scf accuracy    <       0.36104156 Ry

     iteration #  4     ecut=    40.00 Ry     beta=0.30
     Davidson diagonalization with overlap
     ethr =  7.52E-04,  avg # of iterations =  1.0

     total cpu time spent up to now is     4088.4 secs

     total energy              =    -303.03479045 Ry
     Harris-Foulkes estimate   =    -303.05513929 Ry
     estimated scf accuracy    <       0.23265500 Ry

     iteration #  5     ecut=    40.00 Ry     beta=0.30
     Davidson diagonalization with overlap
     ethr =  4.85E-04,  avg # of iterations =  2.0

     total cpu time spent up to now is     4139.6 secs

     total energy              =    -303.05304146 Ry
     Harris-Foulkes estimate   =    -303.05355689 Ry
     estimated scf accuracy    <       0.00838139 Ry

     iteration #  6     ecut=    40.00 Ry     beta=0.30
     Davidson diagonalization with overlap
     ethr =  1.75E-05,  avg # of iterations =  2.0

     total cpu time spent up to now is     4185.9 secs

     total energy              =    -303.05391645 Ry
     Harris-Foulkes estimate   =    -303.05337580 Ry
     estimated scf accuracy    <       0.00485526 Ry

     iteration #  7     ecut=    40.00 Ry     beta=0.30
     Davidson diagonalization with overlap
     ethr =  1.01E-05,  avg # of iterations =  2.0

     total cpu time spent up to now is     4237.1 secs

     total energy              =    -303.05347548 Ry
     Harris-Foulkes estimate   =    -303.05431035 Ry
     estimated scf accuracy    <       0.00130919 Ry

     iteration #  8     ecut=    40.00 Ry     beta=0.30
     Davidson diagonalization with overlap
     ethr =  2.73E-06,  avg # of iterations =  2.0

     total cpu time spent up to now is     4303.3 secs

     total energy              =    -303.05374270 Ry
     Harris-Foulkes estimate   =    -303.05373798 Ry
     estimated scf accuracy    <       0.00002353 Ry

     iteration #  9     ecut=    40.00 Ry     beta=0.30
     Davidson diagonalization with overlap
     ethr =  4.90E-08,  avg # of iterations =  2.0

     total cpu time spent up to now is     4356.3 secs

     total energy              =    -303.05374119 Ry
     Harris-Foulkes estimate   =    -303.05374749 Ry
     estimated scf accuracy    <       0.00003170 Ry

     iteration # 10     ecut=    40.00 Ry     beta=0.30
     Davidson diagonalization with overlap
     ethr =  4.90E-08,  avg # of iterations =  1.0

     total cpu time spent up to now is     4399.9 secs

     total energy              =    -303.05374245 Ry
     Harris-Foulkes estimate   =    -303.05374258 Ry
     estimated scf accuracy    <       0.00000095 Ry

     iteration # 11     ecut=    40.00 Ry     beta=0.30
     Davidson diagonalization with overlap
     ethr =  1.97E-09,  avg # of iterations =  2.0

     total cpu time spent up to now is     4446.9 secs

     total energy              =    -303.05374252 Ry
     Harris-Foulkes estimate   =    -303.05374253 Ry
     estimated scf accuracy    <       0.00000034 Ry

     iteration # 12     ecut=    40.00 Ry     beta=0.30
     Davidson diagonalization with overlap
     ethr =  7.10E-10,  avg # of iterations =  2.0

     total cpu time spent up to now is     4499.8 secs

     total energy              =    -303.05374246 Ry
     Harris-Foulkes estimate   =    -303.05374255 Ry
     estimated scf accuracy    <       0.00000017 Ry

     iteration # 13     ecut=    40.00 Ry     beta=0.30
     Davidson diagonalization with overlap
     ethr =  3.45E-10,  avg # of iterations =  2.0

     total cpu time spent up to now is     4569.0 secs

     End of self-consistent calculation

     Number of k-points >= 100: set verbosity='high' to print the bands.

!    total energy              =    -303.05374249 Ry
     Harris-Foulkes estimate   =    -303.05374250 Ry
     estimated scf accuracy    <          8.4E-09 Ry

     The total energy is the sum of the following terms:

     one-electron contribution =    -123.34096834 Ry
     hartree contribution      =      68.57575728 Ry
     xc contribution           =     -46.57230150 Ry
     ewald contribution        =    -201.71622994 Ry

     convergence has been achieved in  13 iterations

     Forces acting on atoms (Ry/au):

     atom    1 type  2   force =     0.00026736   -0.00005657   -0.00025120
     atom    2 type  2   force =    -0.00002402   -0.00004235   -0.00004305
     atom    3 type  2   force =    -0.00011145    0.00002554    0.00051428
     atom    4 type  2   force =    -0.00010742    0.00006961    0.00031396
     atom    5 type  1   force =     0.00003176    0.00011220   -0.00035656
     atom    6 type  1   force =    -0.00002777   -0.00019935   -0.00022743
     atom    7 type  1   force =     0.00002817    0.00020802    0.00021722
     atom    8 type  1   force =     0.00001992   -0.00011520    0.00048089
     atom    9 type  1   force =     0.00015550   -0.00002097   -0.00013876
     atom   10 type  1   force =    -0.00007171   -0.00001133   -0.00004241
     atom   11 type  1   force =     0.00002287    0.00001412   -0.00049212
     atom   12 type  1   force =    -0.00018322    0.00001627    0.00002516

     Total force =     0.001197     Total SCF correction =     0.000048


     entering subroutine stress ...

          total   stress  (Ry/bohr**3)                   (kbar)     P=    1.31
   0.00000754   0.00000035   0.00000030          1.11      0.05      0.04
   0.00000035   0.00001081   0.00000048          0.05      1.59      0.07
   0.00000030   0.00000048   0.00000829          0.04      0.07      1.22


     Writing output data file CaH2_ambient.save

     init_run     :     82.92s CPU     86.00s WALL (       2 calls)
     electrons    :   3646.35s CPU   3790.75s WALL (       9 calls)
     update_pot   :    276.40s CPU    284.21s WALL (       7 calls)
     forces       :    130.69s CPU    132.00s WALL (       9 calls)
     stress       :    303.60s CPU    305.47s WALL (       9 calls)

     Called by init_run:
     wfcinit      :     41.86s CPU     44.61s WALL (       2 calls)
     potinit      :     19.47s CPU     19.67s WALL (       2 calls)

     Called by electrons:
     c_bands      :   3142.26s CPU   3274.96s WALL (      66 calls)
     sum_band     :    489.55s CPU    500.47s WALL (      66 calls)
     v_of_rho     :      7.70s CPU      7.84s WALL (      71 calls)
     mix_rho      :      7.41s CPU      7.96s WALL (      66 calls)

     Called by c_bands:
     init_us_2    :     55.12s CPU     58.14s WALL (   16416 calls)
     cegterg      :   3115.09s CPU   3174.82s WALL (    7128 calls)

     Called by *egterg:
     h_psi        :   2035.66s CPU   2049.85s WALL (   21396 calls)
     g_psi        :     17.97s CPU     18.16s WALL (   14052 calls)
     cdiaghg      :     46.37s CPU     46.74s WALL (   19992 calls)

     Called by h_psi:
     add_vuspsi   :     66.31s CPU     66.79s WALL (   21396 calls)

     General routines
     calbec       :     72.74s CPU     73.16s WALL (   23340 calls)
     fft          :      2.21s CPU      2.24s WALL (     859 calls)
     ffts         :      2.90s CPU      2.96s WALL (    1151 calls)
     fftw         :   1903.99s CPU   1911.92s WALL ( 1054502 calls)
     davcio       :      2.26s CPU     83.62s WALL (   23544 calls)


     PWSCF        :     1h14m CPU        1h16m WALL


   This run was terminated on:  19:15: 0   3Jun2014            

=------------------------------------------------------------------------------=
   JOB DONE.
=------------------------------------------------------------------------------=
