
     Program PWSCF v.5.0.2 (svn rev. 9392) starts on 22Apr2014 at  1:40: 0 

     This program is part of the open-source Quantum ESPRESSO suite
     for quantum simulation of materials; please cite
         "P. Giannozzi et al., J. Phys.:Condens. Matter 21 395502 (2009);
          URL http://www.quantum-espresso.org", 
     in publications or presentations arising from this work. More details at
     http://www.quantum-espresso.org/quote.php

     Serial version

     Current dimensions of program PWSCF are:
     Max number of different atomic species (ntypx) = 10
     Max number of k-points (npk) =  40000
     Max angular momentum in pseudopotentials (lmaxx) =  3
     Waiting for input...
     Reading input from standard input

     G-vector sticks info
     --------------------
     sticks:   dense  smooth     PW     G-vecs:    dense   smooth      PW
     Sum         757     757    283                22473    22473    5157



     bravais-lattice index     =            4
     lattice parameter (alat)  =       5.8600  a.u.
     unit-cell volume          =     232.1281 (a.u.)^3
     number of atoms/cell      =            5
     number of atomic types    =            3
     number of electrons       =        24.00
     number of Kohn-Sham states=           12
     kinetic-energy cutoff     =     100.0000  Ry
     charge density cutoff     =     320.0000  Ry
     convergence threshold     =      1.0E-06
     mixing beta               =       0.3000
     number of iterations used =           16  local-TF  mixing
     Exchange-correlation      = PBE ( 1 4 3 4 0)
     EXX-fraction              =        0.00
     nstep                     =           50


     celldm(1)=   5.860000  celldm(2)=   0.000000  celldm(3)=   1.332000
     celldm(4)=   0.000000  celldm(5)=   0.000000  celldm(6)=   0.000000

     crystal axes: (cart. coord. in units of alat)
               a(1) = (   1.000000   0.000000   0.000000 )  
               a(2) = (  -0.500000   0.866025   0.000000 )  
               a(3) = (   0.000000   0.000000   1.332000 )  

     reciprocal axes: (cart. coord. in units 2 pi/alat)
               b(1) = (  1.000000  0.577350 -0.000000 )  
               b(2) = (  0.000000  1.154701  0.000000 )  
               b(3) = (  0.000000 -0.000000  0.750751 )  


     PseudoPot. # 1 for H  read from file:
     /home/ilia/espresso/pseudo/H.pbe-sp-mt.ncpp
     MD5 check sum: 7a641936b52ccecd26bd1ad87cca5aed
     Pseudo is Norm-conserving, Zval =  1.0
     Generated by old ld1 code (numerical format)
     Using radial grid of 1076 points,  0 beta functions with: 

     PseudoPot. # 2 for O  read from file:
     /home/ilia/espresso/pseudo/O.pbe-sp-mt.ncpp
     MD5 check sum: 8a3d23d410d2f3ebfd0a39faacc72cbb
     Pseudo is Norm-conserving, Zval =  6.0
     Generated by old ld1 code (numerical format)
     Using radial grid of 1130 points,  1 beta functions with: 
                l(1) =   1

     PseudoPot. # 3 for Ca read from file:
     /home/ilia/espresso/pseudo/Ca.pbe-sp-mt_ion2.ncpp
     MD5 check sum: 4bcd670d05521f7b178fdf0a334578ab
     Pseudo is Norm-conserving, Zval = 10.0
     Generated by old ld1 code (numerical format)
     Using radial grid of 1153 points,  1 beta functions with: 
                l(1) =   1

     atomic species   valence    mass     pseudopotential
        H              1.00     1.00700     H ( 1.00)
        O              6.00    16.00000     O ( 1.00)
        Ca            10.00    40.07800     Ca( 1.00)

      6 Sym. Ops. (no inversion) found



   Cartesian axes

     site n.     atom                  positions (alat units)
         1           Ca  tau(   1) = (   0.0000000   0.0000000   0.0000000  )
         2           O   tau(   2) = (   0.0000000   0.5773503   0.6287040  )
         3           O   tau(   3) = (   0.5000000   0.2886751   0.7166160  )
         4           H   tau(   4) = (   0.0000000   0.5773503   0.9430560  )
         5           H   tau(   5) = (   0.5000000   0.2886751   0.3889440  )

     number of k points=    63
                       cart. coord. in units 2pi/alat
        k(    1) = (   0.0833333   0.1443376   0.0625626), wk =   0.0370370
        k(    2) = (   0.0833333   0.1443376   0.1876877), wk =   0.0370370
        k(    3) = (   0.0833333   0.1443376   0.3128128), wk =   0.0370370
        k(    4) = (   0.0833333   0.3367877   0.0625626), wk =   0.0370370
        k(    5) = (   0.0833333   0.3367877   0.1876877), wk =   0.0370370
        k(    6) = (   0.0833333   0.3367877   0.3128128), wk =   0.0370370
        k(    7) = (   0.0833333   0.5292377   0.0625626), wk =   0.0370370
        k(    8) = (   0.0833333   0.5292377   0.1876877), wk =   0.0370370
        k(    9) = (   0.0833333   0.5292377   0.3128128), wk =   0.0370370
        k(   10) = (   0.0833333  -0.4330127   0.0625626), wk =   0.0370370
        k(   11) = (   0.0833333  -0.4330127   0.1876877), wk =   0.0370370
        k(   12) = (   0.0833333  -0.4330127   0.3128128), wk =   0.0370370
        k(   13) = (   0.0833333  -0.2405626   0.0625626), wk =   0.0370370
        k(   14) = (   0.0833333  -0.2405626   0.1876877), wk =   0.0370370
        k(   15) = (   0.0833333  -0.2405626   0.3128128), wk =   0.0370370
        k(   16) = (   0.0833333  -0.0481125   0.0625626), wk =   0.0185185
        k(   17) = (   0.0833333  -0.0481125   0.1876877), wk =   0.0185185
        k(   18) = (   0.0833333  -0.0481125   0.3128128), wk =   0.0185185
        k(   19) = (   0.2500000   0.4330127   0.0625626), wk =   0.0370370
        k(   20) = (   0.2500000   0.4330127   0.1876877), wk =   0.0370370
        k(   21) = (   0.2500000   0.4330127   0.3128128), wk =   0.0370370
        k(   22) = (   0.2500000   0.6254628   0.0625626), wk =   0.0370370
        k(   23) = (   0.2500000   0.6254628   0.1876877), wk =   0.0370370
        k(   24) = (   0.2500000   0.6254628   0.3128128), wk =   0.0370370
        k(   25) = (   0.2500000  -0.3367877   0.0625626), wk =   0.0370370
        k(   26) = (   0.2500000  -0.3367877   0.1876877), wk =   0.0370370
        k(   27) = (   0.2500000  -0.3367877   0.3128128), wk =   0.0370370
        k(   28) = (   0.2500000  -0.1443376   0.0625626), wk =   0.0185185
        k(   29) = (   0.2500000  -0.1443376   0.1876877), wk =   0.0185185
        k(   30) = (   0.2500000  -0.1443376   0.3128128), wk =   0.0185185
        k(   31) = (   0.4166667   0.7216878   0.0625626), wk =   0.0370370
        k(   32) = (   0.4166667   0.7216878   0.1876877), wk =   0.0370370
        k(   33) = (   0.4166667   0.7216878   0.3128128), wk =   0.0370370
        k(   34) = (   0.4166667  -0.2405626   0.0625626), wk =   0.0185185
        k(   35) = (   0.4166667  -0.2405626   0.1876877), wk =   0.0185185
        k(   36) = (   0.4166667  -0.2405626   0.3128128), wk =   0.0185185
        k(   37) = (  -0.0833333  -0.3367877   0.0625626), wk =   0.0370370
        k(   38) = (  -0.0833333  -0.3367877   0.1876877), wk =   0.0370370
        k(   39) = (  -0.0833333  -0.3367877   0.3128128), wk =   0.0370370
        k(   40) = (  -0.0833333  -0.5292377   0.0625626), wk =   0.0370370
        k(   41) = (  -0.0833333  -0.5292377   0.1876877), wk =   0.0370370
        k(   42) = (  -0.0833333  -0.5292377   0.3128128), wk =   0.0370370
        k(   43) = (  -0.0833333   0.4330127   0.0625626), wk =   0.0370370
        k(   44) = (  -0.0833333   0.4330127   0.1876877), wk =   0.0370370
        k(   45) = (  -0.0833333   0.4330127   0.3128128), wk =   0.0370370
        k(   46) = (  -0.0833333   0.2405626   0.0625626), wk =   0.0370370
        k(   47) = (  -0.0833333   0.2405626   0.1876877), wk =   0.0370370
        k(   48) = (  -0.0833333   0.2405626   0.3128128), wk =   0.0370370
        k(   49) = (  -0.0833333   0.0481125   0.0625626), wk =   0.0185185
        k(   50) = (  -0.0833333   0.0481125   0.1876877), wk =   0.0185185
        k(   51) = (  -0.0833333   0.0481125   0.3128128), wk =   0.0185185
        k(   52) = (  -0.2500000  -0.6254628   0.0625626), wk =   0.0370370
        k(   53) = (  -0.2500000  -0.6254628   0.1876877), wk =   0.0370370
        k(   54) = (  -0.2500000  -0.6254628   0.3128128), wk =   0.0370370
        k(   55) = (  -0.2500000   0.3367877   0.0625626), wk =   0.0370370
        k(   56) = (  -0.2500000   0.3367877   0.1876877), wk =   0.0370370
        k(   57) = (  -0.2500000   0.3367877   0.3128128), wk =   0.0370370
        k(   58) = (  -0.2500000   0.1443376   0.0625626), wk =   0.0185185
        k(   59) = (  -0.2500000   0.1443376   0.1876877), wk =   0.0185185
        k(   60) = (  -0.2500000   0.1443376   0.3128128), wk =   0.0185185
        k(   61) = (  -0.4166667   0.2405626   0.0625626), wk =   0.0185185
        k(   62) = (  -0.4166667   0.2405626   0.1876877), wk =   0.0185185
        k(   63) = (  -0.4166667   0.2405626   0.3128128), wk =   0.0185185

     Dense  grid:    22473 G-vectors     FFT dimensions: (  36,  36,  45)

     Largest allocated arrays     est. size (Mb)     dimensions
        Kohn-Sham Wavefunctions         0.72 Mb     (   3953,   12)
        NL pseudopotentials             0.54 Mb     (   3953,    9)
        Each V/rho on FFT grid          0.89 Mb     (  58320)
        Each G-vector array             0.17 Mb     (  22473)
        G-vector shells                 0.17 Mb     (  22473)
     Largest temporary arrays     est. size (Mb)     dimensions
        Auxiliary wavefunctions         2.90 Mb     (   3953,   48)
        Each subspace H/S matrix        0.04 Mb     (  48,  48)
        Each <psi_i|beta_j> matrix      0.00 Mb     (      9,   12)
        Arrays for rho mixing          14.24 Mb     (  58320,  16)

     Initial potential from superposition of free atoms

     starting charge   21.99998, renormalised to   24.00000
     Starting wfc are   14 randomized atomic wfcs

     total cpu time spent up to now is       34.4 secs

     per-process dynamical memory:    13.9 Mb

     Self-consistent Calculation

     iteration #  1     ecut=   100.00 Ry     beta=0.30
     Davidson diagonalization with overlap
     ethr =  1.00E-02,  avg # of iterations =  2.3

     total cpu time spent up to now is       47.1 secs

     total energy              =    -138.94986530 Ry
     Harris-Foulkes estimate   =    -139.04185099 Ry
     estimated scf accuracy    <       0.52656765 Ry

     iteration #  2     ecut=   100.00 Ry     beta=0.30
     Davidson diagonalization with overlap
     ethr =  2.19E-03,  avg # of iterations =  3.4

     total cpu time spent up to now is       57.3 secs

     total energy              =    -139.16707973 Ry
     Harris-Foulkes estimate   =    -139.21614704 Ry
     estimated scf accuracy    <       0.52852567 Ry

     iteration #  3     ecut=   100.00 Ry     beta=0.30
     Davidson diagonalization with overlap
     ethr =  2.19E-03,  avg # of iterations =  1.4

     total cpu time spent up to now is       66.7 secs

     total energy              =    -138.93257457 Ry
     Harris-Foulkes estimate   =    -139.19847496 Ry
     estimated scf accuracy    <       0.48983518 Ry

     iteration #  4     ecut=   100.00 Ry     beta=0.30
     Davidson diagonalization with overlap
     ethr =  2.04E-03,  avg # of iterations =  2.5

     total cpu time spent up to now is       77.7 secs

     total energy              =    -139.03303640 Ry
     Harris-Foulkes estimate   =    -139.05289624 Ry
     estimated scf accuracy    <       0.04652802 Ry

     iteration #  5     ecut=   100.00 Ry     beta=0.30
     Davidson diagonalization with overlap
     ethr =  1.94E-04,  avg # of iterations =  2.6

     total cpu time spent up to now is       87.9 secs

     total energy              =    -139.04848140 Ry
     Harris-Foulkes estimate   =    -139.05377528 Ry
     estimated scf accuracy    <       0.01521435 Ry

     iteration #  6     ecut=   100.00 Ry     beta=0.30
     Davidson diagonalization with overlap
     ethr =  6.34E-05,  avg # of iterations =  2.9

     total cpu time spent up to now is       97.8 secs

     total energy              =    -139.05410698 Ry
     Harris-Foulkes estimate   =    -139.05502653 Ry
     estimated scf accuracy    <       0.00495159 Ry

     iteration #  7     ecut=   100.00 Ry     beta=0.30
     Davidson diagonalization with overlap
     ethr =  2.06E-05,  avg # of iterations =  2.0

     total cpu time spent up to now is      106.2 secs

     total energy              =    -139.05276980 Ry
     Harris-Foulkes estimate   =    -139.05440544 Ry
     estimated scf accuracy    <       0.00330165 Ry

     iteration #  8     ecut=   100.00 Ry     beta=0.30
     Davidson diagonalization with overlap
     ethr =  1.38E-05,  avg # of iterations =  3.5

     total cpu time spent up to now is      117.1 secs

     total energy              =    -139.05378810 Ry
     Harris-Foulkes estimate   =    -139.05482205 Ry
     estimated scf accuracy    <       0.00301019 Ry

     iteration #  9     ecut=   100.00 Ry     beta=0.30
     Davidson diagonalization with overlap
     ethr =  1.25E-05,  avg # of iterations =  2.8

     total cpu time spent up to now is      126.7 secs

     total energy              =    -139.05432975 Ry
     Harris-Foulkes estimate   =    -139.05434863 Ry
     estimated scf accuracy    <       0.00006492 Ry

     iteration # 10     ecut=   100.00 Ry     beta=0.30
     Davidson diagonalization with overlap
     ethr =  2.71E-07,  avg # of iterations =  5.3

     total cpu time spent up to now is      138.9 secs

     total energy              =    -139.05436204 Ry
     Harris-Foulkes estimate   =    -139.05436828 Ry
     estimated scf accuracy    <       0.00001823 Ry

     iteration # 11     ecut=   100.00 Ry     beta=0.30
     Davidson diagonalization with overlap
     ethr =  7.60E-08,  avg # of iterations =  2.8

     total cpu time spent up to now is      148.8 secs

     End of self-consistent calculation

          k = 0.0833 0.1443 0.0626 (  3927 PWs)   bands (ev):

   -29.3065 -11.9448 -10.7842 -10.3875 -10.3814  -4.8109   1.6824   5.3356
     6.0939   6.7102   9.7753  11.2718

          k = 0.0833 0.1443 0.1877 (  3931 PWs)   bands (ev):

   -29.3037 -12.2622 -10.5966 -10.3789 -10.1716  -4.8068   1.2689   5.3442
     6.0915   6.5933  10.9252  11.2793

          k = 0.0833 0.1443 0.3128 (  3917 PWs)   bands (ev):

   -29.3009 -12.4859 -10.5501 -10.3762  -9.9047  -4.8034   0.8988   5.3499
     6.0895   6.4778  11.2853  11.8914

          k = 0.0833 0.3368 0.0626 (  3923 PWs)   bands (ev):

   -29.2216 -11.7017 -10.7547 -10.5165 -10.1887  -6.2830   2.0591   4.5550
     5.7297   6.7941  11.2887  11.3788

          k = 0.0833 0.3368 0.1877 (  3919 PWs)   bands (ev):

   -29.2195 -11.7296 -10.9121 -10.5085  -9.9998  -6.2883   1.9193   4.5578
     5.5550   6.7891  11.4212  12.3060

          k = 0.0833 0.3368 0.3128 (  3914 PWs)   bands (ev):

   -29.2175 -11.7531 -11.0089 -10.5019  -9.8880  -6.2723   1.7832   4.5554
     5.3814   6.7971  11.4938  13.1490

          k = 0.0833 0.5292 0.0626 (  3919 PWs)   bands (ev):

   -29.1582 -11.7369 -10.6366 -10.6126  -9.4840  -7.7022   2.5785   4.0813
     4.7383   6.9209  11.9974  12.6306

          k = 0.0833 0.5292 0.1877 (  3926 PWs)   bands (ev):

   -29.1568 -11.5974 -10.7154 -10.6023  -9.6665  -7.6513   2.7145   4.0716
     4.4801   6.9920  11.9894  13.5303

          k = 0.0833 0.5292 0.3128 (  3917 PWs)   bands (ev):

   -29.1553 -11.4073 -10.8078 -10.5939  -9.8945  -7.5848   2.8400   4.0788
     4.2287   7.0793  11.9568  13.9193

          k = 0.0833-0.4330 0.0626 (  3917 PWs)   bands (ev):

   -29.1815 -11.6915 -10.6918 -10.5768  -9.8818  -7.0657   2.3323   4.2575
     5.1291   6.9239  11.6562  12.0655

          k = 0.0833-0.4330 0.1877 (  3915 PWs)   bands (ev):

   -29.1798 -11.5544 -10.8855 -10.5666  -9.8926  -7.0380   2.3332   4.2696
     4.8978   6.9819  11.6637  12.7287

          k = 0.0833-0.4330 0.3128 (  3914 PWs)   bands (ev):

   -29.1782 -11.3378 -11.1390 -10.5591  -9.9057  -7.0315   2.3399   4.2636
     4.7228   7.0157  11.7231  13.5944

          k = 0.0833-0.2406 0.0626 (  3935 PWs)   bands (ev):

   -29.2673 -11.7901 -10.7942 -10.4438 -10.3592  -5.4681   1.8239   4.9533
     6.2691   6.5160  10.4391  11.1818

          k = 0.0833-0.2406 0.1877 (  3920 PWs)   bands (ev):

   -29.2649 -11.9999 -10.7912 -10.4388 -10.1081  -5.4582   1.5304   4.9596
     6.1153   6.5010  11.2294  11.4822

          k = 0.0833-0.2406 0.3128 (  3930 PWs)   bands (ev):

   -29.2624 -12.1706 -10.7784 -10.4345  -9.9003  -5.4569   1.2715   4.9539
     5.9764   6.4790  11.3118  12.4818

          k = 0.0833-0.0481 0.0626 (  3953 PWs)   bands (ev):

   -29.3290 -12.0448 -10.7871 -10.3609 -10.3483  -4.4288   1.6159   5.5654
     5.8178   6.9353   9.4089  11.3991

          k = 0.0833-0.0481 0.1877 (  3924 PWs)   bands (ev):

   -29.3260 -12.4038 -10.4571 -10.3463 -10.2231  -4.4290   1.1314   5.5796
     5.8352   6.8475  10.6134  11.3396

          k = 0.0833-0.0481 0.3128 (  3900 PWs)   bands (ev):

   -29.3229 -12.6492 -10.4099 -10.3443  -9.9108  -4.4293   0.7000   5.5985
     5.8498   6.7550  11.2984  11.5311

          k = 0.2500 0.4330 0.0626 (  3913 PWs)   bands (ev):

   -29.1584 -11.5559 -10.8465 -10.6361  -9.5530  -7.5439   2.6546   3.4239
     4.6260   8.4050  10.8672  12.8549

          k = 0.2500 0.4330 0.1877 (  3920 PWs)   bands (ev):

   -29.1569 -11.4345 -10.8209 -10.7352  -9.6327  -7.5916   2.6670   3.5394
     4.5223   8.3610  10.9049  13.4666

          k = 0.2500 0.4330 0.3128 (  3907 PWs)   bands (ev):

   -29.1554 -11.2503 -10.9170 -10.7687  -9.7181  -7.6402   2.7097   3.6197
     4.4267   8.3134  10.9451  14.0922

          k = 0.2500 0.6255 0.0626 (  3906 PWs)   bands (ev):

   -29.1413 -11.4742 -10.9999 -10.6028  -9.1325  -8.0972   3.0105   3.1615
     4.1134   8.9325  10.7029  13.3216

          k = 0.2500 0.6255 0.1877 (  3912 PWs)   bands (ev):

   -29.1400 -11.3612 -10.9528 -10.6469  -9.2886  -8.1648   3.0677   3.2988
     4.0456   8.9069  10.6878  13.8630

          k = 0.2500 0.6255 0.3128 (  3912 PWs)   bands (ev):

   -29.1387 -11.2271 -10.9005 -10.6994  -9.4556  -8.2385   3.1595   3.4011
     3.9838   8.8735  10.6722  14.3085

          k = 0.2500-0.3368 0.0626 (  3914 PWs)   bands (ev):

   -29.1878 -11.6356 -10.6977 -10.6595  -9.9326  -6.9011   2.3088   3.9319
     5.2155   7.5948  11.1081  12.0963

          k = 0.2500-0.3368 0.1877 (  3928 PWs)   bands (ev):

   -29.1861 -11.5519 -10.8721 -10.6430  -9.8741  -6.9217   2.2563   3.9944
     5.0650   7.5572  11.1923  12.9033

          k = 0.2500-0.3368 0.3128 (  3919 PWs)   bands (ev):

   -29.1843 -11.4117 -11.0778 -10.6256  -9.8500  -6.9311   2.2192   4.0364
     4.9174   7.5299  11.2616  13.6878

          k = 0.2500-0.1443 0.0626 (  3925 PWs)   bands (ev):

   -29.2506 -11.7608 -10.7820 -10.4454 -10.3218  -5.7749   1.9053   4.9753
     6.0849   6.3897  10.7694  11.3525

          k = 0.2500-0.1443 0.1877 (  3928 PWs)   bands (ev):

   -29.2483 -11.9080 -10.8538 -10.4424 -10.0669  -5.7766   1.6776   4.9471
     5.9225   6.3999  11.4310  11.8214

          k = 0.2500-0.1443 0.3128 (  3925 PWs)   bands (ev):

   -29.2460 -12.0291 -10.8807 -10.4394  -9.8944  -5.7568   1.4562   4.9248
     5.7589   6.4149  11.5071  12.6873

          k = 0.4167 0.7217 0.0626 (  3910 PWs)   bands (ev):

   -29.1475 -11.6283 -10.7957 -10.6126  -9.2744  -7.9510   2.8051   3.4930
     4.4047   7.9450  11.4193  12.9971

          k = 0.4167 0.7217 0.1877 (  3917 PWs)   bands (ev):

   -29.1461 -11.4979 -10.7735 -10.6588  -9.4757  -7.9430   2.9346   3.5629
     4.2296   7.9582  11.3994  13.6690

          k = 0.4167 0.7217 0.3128 (  3925 PWs)   bands (ev):

   -29.1448 -11.3385 -10.7456 -10.7098  -9.7037  -7.9370   3.0615   3.6550
     4.0443   7.9771  11.3705  14.1511

          k = 0.4167-0.2406 0.0626 (  3928 PWs)   bands (ev):

   -29.1707 -11.7582 -10.6600 -10.5406  -9.6962  -7.3916   2.4233   4.5059
     4.9907   6.4139  12.1258  12.3638

          k = 0.4167-0.2406 0.1877 (  3928 PWs)   bands (ev):

   -29.1691 -11.6250 -10.7891 -10.5365  -9.7861  -7.3523   2.5078   4.4523
     4.7130   6.5288  12.1552  13.3854

          k = 0.4167-0.2406 0.3128 (  3911 PWs)   bands (ev):

   -29.1675 -11.4118 -10.9705 -10.5325  -9.9275  -7.2804   2.5718   4.4015
     4.4702   6.6552  12.1361  13.6943

          k =-0.0833-0.3368 0.0626 (  3923 PWs)   bands (ev):

   -29.2216 -11.6856 -10.7691 -10.5157 -10.2028  -6.2637   2.0481   4.5626
     5.7084   6.8141  11.2061  11.3862

          k =-0.0833-0.3368 0.1877 (  3919 PWs)   bands (ev):

   -29.2195 -11.6952 -10.9446 -10.5078 -10.0257  -6.2494   1.8988   4.5714
     5.5164   6.8281  11.3592  12.1313

          k =-0.0833-0.3368 0.3128 (  3914 PWs)   bands (ev):

   -29.2175 -11.7358 -11.0257 -10.5016  -9.9005  -6.2527   1.7735   4.5615
     5.3637   6.8161  11.4668  13.1055

          k =-0.0833-0.5292 0.0626 (  3919 PWs)   bands (ev):

   -29.1582 -11.7316 -10.6410 -10.6090  -9.5029  -7.6848   2.5744   4.0885
     4.7256   6.9293  11.9820  12.5380

          k =-0.0833-0.5292 0.1877 (  3926 PWs)   bands (ev):

   -29.1568 -11.5827 -10.7240 -10.5997  -9.6997  -7.6209   2.7086   4.0891
     4.4497   7.0103  11.9484  13.1988

          k =-0.0833-0.5292 0.3128 (  3917 PWs)   bands (ev):

   -29.1553 -11.3949 -10.8172 -10.5927  -9.9093  -7.5714   2.8387   4.0988
     4.2008   7.0892  11.9336  13.8609

          k =-0.0833 0.4330 0.0626 (  3917 PWs)   bands (ev):

   -29.1815 -11.7060 -10.6837 -10.5789  -9.8538  -7.0926   2.3423   4.2469
     5.1536   6.9033  11.6952  12.1807

          k =-0.0833 0.4330 0.1877 (  3915 PWs)   bands (ev):

   -29.1798 -11.5966 -10.8521 -10.5686  -9.8447  -7.0896   2.3501   4.2493
     4.9469   6.9385  11.7494  13.1385

          k =-0.0833 0.4330 0.3128 (  3914 PWs)   bands (ev):

   -29.1782 -11.3974 -11.0819 -10.5599  -9.8848  -7.0562   2.3469   4.2534
     4.7480   6.9931  11.7677  13.6589

          k =-0.0833 0.2406 0.0626 (  3935 PWs)   bands (ev):

   -29.2673 -11.7971 -10.7852 -10.4440 -10.3570  -5.4763   1.8303   4.9491
     6.2772   6.5104  10.4561  11.1775

          k =-0.0833 0.2406 0.1877 (  3920 PWs)   bands (ev):

   -29.2649 -12.0093 -10.7815 -10.4388 -10.1001  -5.4752   1.5427   4.9518
     6.1303   6.4893  11.2419  11.5203

          k =-0.0833 0.2406 0.3128 (  3930 PWs)   bands (ev):

   -29.2624 -12.1742 -10.7750 -10.4346  -9.8958  -5.4656   1.2776   4.9502
     5.9831   6.4736  11.3123  12.5076

          k =-0.0833 0.0481 0.0626 (  3953 PWs)   bands (ev):

   -29.3290 -12.0440 -10.7883 -10.3609 -10.3483  -4.4275   1.6145   5.5698
     5.8154   6.9328   9.4082  11.4206

          k =-0.0833 0.0481 0.1877 (  3924 PWs)   bands (ev):

   -29.3260 -12.4030 -10.4579 -10.3463 -10.2241  -4.4261   1.1286   5.5887
     5.8296   6.8439  10.6103  11.3814

          k =-0.0833 0.0481 0.3128 (  3900 PWs)   bands (ev):

   -29.3229 -12.6489 -10.4100 -10.3443  -9.9115  -4.4278   0.6986   5.6031
     5.8467   6.7536  11.3202  11.5063

          k =-0.2500-0.6255 0.0626 (  3906 PWs)   bands (ev):

   -29.1413 -11.4760 -10.9984 -10.6031  -9.1279  -8.1017   3.0309   3.1380
     4.1179   8.9285  10.7084  13.3947

          k =-0.2500-0.6255 0.1877 (  3912 PWs)   bands (ev):

   -29.1400 -11.3660 -10.9482 -10.6480  -9.2798  -8.1732   3.0897   3.2694
     4.0558   8.8983  10.6999  14.0879

          k =-0.2500-0.6255 0.3128 (  3912 PWs)   bands (ev):

   -29.1387 -11.2308 -10.8960 -10.7009  -9.4514  -8.2424   3.1681   3.3876
     3.9900   8.8689  10.6787  14.3220

          k =-0.2500 0.3368 0.0626 (  3914 PWs)   bands (ev):

   -29.1878 -11.6279 -10.7129 -10.6493  -9.9427  -6.8903   2.3031   3.9389
     5.2038   7.6068  11.0876  12.0504

          k =-0.2500 0.3368 0.1877 (  3928 PWs)   bands (ev):

   -29.1861 -11.5305 -10.8948 -10.6386  -9.8918  -6.9005   2.2468   4.0067
     5.0424   7.5812  11.1519  12.7455

          k =-0.2500 0.3368 0.3128 (  3919 PWs)   bands (ev):

   -29.1843 -11.3890 -11.1009 -10.6243  -9.8582  -6.9207   2.2152   4.0419
     4.9064   7.5419  11.2416  13.6523

          k =-0.2500 0.1443 0.0626 (  3925 PWs)   bands (ev):

   -29.2506 -11.7439 -10.8002 -10.4455 -10.3306  -5.7556   1.8922   4.9813
     6.0699   6.4024  10.7229  11.3554

          k =-0.2500 0.1443 0.1877 (  3928 PWs)   bands (ev):

   -29.2483 -11.8817 -10.8793 -10.4425 -10.0885  -5.7370   1.6520   4.9589
     5.8904   6.4303  11.3875  11.7101

          k =-0.2500 0.1443 0.3128 (  3925 PWs)   bands (ev):

   -29.2460 -12.0184 -10.8906 -10.4394  -9.9057  -5.7366   1.4436   4.9306
     5.7437   6.4301  11.4976  12.6341

          k =-0.4167 0.2406 0.0626 (  3928 PWs)   bands (ev):

   -29.1707 -11.7467 -10.6615 -10.5406  -9.7289  -7.3622   2.4163   4.5081
     4.9739   6.4302  12.1032  12.2191

          k =-0.4167 0.2406 0.1877 (  3928 PWs)   bands (ev):

   -29.1691 -11.5921 -10.8066 -10.5366  -9.8426  -7.2981   2.4972   4.4566
     4.6772   6.5649  12.0703  12.8893

          k =-0.4167 0.2406 0.3128 (  3911 PWs)   bands (ev):

   -29.1675 -11.3767 -11.0001 -10.5326  -9.9515  -7.2555   2.5684   4.4037
     4.4510   6.6746  12.0898  13.6639

!    total energy              =    -139.05436489 Ry
     Harris-Foulkes estimate   =    -139.05436488 Ry
     estimated scf accuracy    <       0.00000049 Ry

     The total energy is the sum of the following terms:

     one-electron contribution =     -26.00484305 Ry
     hartree contribution      =      27.36434796 Ry
     xc contribution           =     -26.16570877 Ry
     ewald contribution        =    -114.24816104 Ry

     convergence has been achieved in  11 iterations

     Forces acting on atoms (Ry/au):

     atom    1 type  3   force =     0.00000000    0.00000000    0.00149915
     atom    2 type  2   force =     0.00000000   -0.00000000   -0.19004282
     atom    3 type  2   force =     0.00000000    0.00000000    0.17721185
     atom    4 type  1   force =     0.00000000    0.00000000    0.05072111
     atom    5 type  1   force =     0.00000000    0.00000000   -0.03938929

     Total force =     0.267669     Total SCF correction =     0.000970


     entering subroutine stress ...

          total   stress  (Ry/bohr**3)                   (kbar)     P=  943.94
   0.00867294  -0.00000000   0.00000000       1275.83     -0.00      0.00
  -0.00000000   0.00867294   0.00000000         -0.00   1275.83      0.00
   0.00000000  -0.00000000   0.00190454          0.00     -0.00    280.17


     BFGS Geometry Optimization

     number of scf cycles    =   1
     number of bfgs steps    =   0

     enthalpy new            =    -136.5027793618 Ry

     new trust radius        =       0.5000000000 bohr
     new conv_thr            =       0.0000010000 Ry

     new unit-cell volume =    178.12783 a.u.^3 (    26.39582 Ang^3 )

CELL_PARAMETERS (alat=  5.86000000)
   0.958123951  -0.000000000   0.000000000
  -0.479061975   0.829759681  -0.000000000
   0.000000000   0.000000000   1.113435116

ATOMIC_POSITIONS (crystal)
Ca      -0.000000000  -0.000000000   0.000138717
O        0.333333333   0.666666667   0.454415247
O        0.666666667   0.333333333   0.554397497
H        0.333333333   0.666666667   0.712693249
H        0.666666667   0.333333333   0.288355291



     Writing output data file CaOH2_ambient.save
     NEW-OLD atomic charge density approx. for the potential
     NEW k-points:
        k(    1) = (   0.0869755   0.1506460   0.0748435), wk =   0.0370370
        k(    2) = (   0.0869755   0.1506460   0.2245304), wk =   0.0370370
        k(    3) = (   0.0869755   0.1506460   0.3742173), wk =   0.0370370
        k(    4) = (   0.0869755   0.3515074   0.0748435), wk =   0.0370370
        k(    5) = (   0.0869755   0.3515074   0.2245304), wk =   0.0370370
        k(    6) = (   0.0869755   0.3515074   0.3742173), wk =   0.0370370
        k(    7) = (   0.0869755   0.5523688   0.0748435), wk =   0.0370370
        k(    8) = (   0.0869755   0.5523688   0.2245304), wk =   0.0370370
        k(    9) = (   0.0869755   0.5523688   0.3742173), wk =   0.0370370
        k(   10) = (   0.0869755  -0.4519381   0.0748435), wk =   0.0370370
        k(   11) = (   0.0869755  -0.4519381   0.2245304), wk =   0.0370370
        k(   12) = (   0.0869755  -0.4519381   0.3742173), wk =   0.0370370
        k(   13) = (   0.0869755  -0.2510767   0.0748435), wk =   0.0370370
        k(   14) = (   0.0869755  -0.2510767   0.2245304), wk =   0.0370370
        k(   15) = (   0.0869755  -0.2510767   0.3742173), wk =   0.0370370
        k(   16) = (   0.0869755  -0.0502153   0.0748435), wk =   0.0185185
        k(   17) = (   0.0869755  -0.0502153   0.2245304), wk =   0.0185185
        k(   18) = (   0.0869755  -0.0502153   0.3742173), wk =   0.0185185
        k(   19) = (   0.2609266   0.4519381   0.0748435), wk =   0.0370370
        k(   20) = (   0.2609266   0.4519381   0.2245304), wk =   0.0370370
        k(   21) = (   0.2609266   0.4519381   0.3742173), wk =   0.0370370
        k(   22) = (   0.2609266   0.6527995   0.0748435), wk =   0.0370370
        k(   23) = (   0.2609266   0.6527995   0.2245304), wk =   0.0370370
        k(   24) = (   0.2609266   0.6527995   0.3742173), wk =   0.0370370
        k(   25) = (   0.2609266  -0.3515074   0.0748435), wk =   0.0370370
        k(   26) = (   0.2609266  -0.3515074   0.2245304), wk =   0.0370370
        k(   27) = (   0.2609266  -0.3515074   0.3742173), wk =   0.0370370
        k(   28) = (   0.2609266  -0.1506460   0.0748435), wk =   0.0185185
        k(   29) = (   0.2609266  -0.1506460   0.2245304), wk =   0.0185185
        k(   30) = (   0.2609266  -0.1506460   0.3742173), wk =   0.0185185
        k(   31) = (   0.4348776   0.7532301   0.0748435), wk =   0.0370370
        k(   32) = (   0.4348776   0.7532301   0.2245304), wk =   0.0370370
        k(   33) = (   0.4348776   0.7532301   0.3742173), wk =   0.0370370
        k(   34) = (   0.4348776  -0.2510767   0.0748435), wk =   0.0185185
        k(   35) = (   0.4348776  -0.2510767   0.2245304), wk =   0.0185185
        k(   36) = (   0.4348776  -0.2510767   0.3742173), wk =   0.0185185
        k(   37) = (  -0.0869755  -0.3515074   0.0748435), wk =   0.0370370
        k(   38) = (  -0.0869755  -0.3515074   0.2245304), wk =   0.0370370
        k(   39) = (  -0.0869755  -0.3515074   0.3742173), wk =   0.0370370
        k(   40) = (  -0.0869755  -0.5523688   0.0748435), wk =   0.0370370
        k(   41) = (  -0.0869755  -0.5523688   0.2245304), wk =   0.0370370
        k(   42) = (  -0.0869755  -0.5523688   0.3742173), wk =   0.0370370
        k(   43) = (  -0.0869755   0.4519381   0.0748435), wk =   0.0370370
        k(   44) = (  -0.0869755   0.4519381   0.2245304), wk =   0.0370370
        k(   45) = (  -0.0869755   0.4519381   0.3742173), wk =   0.0370370
        k(   46) = (  -0.0869755   0.2510767   0.0748435), wk =   0.0370370
        k(   47) = (  -0.0869755   0.2510767   0.2245304), wk =   0.0370370
        k(   48) = (  -0.0869755   0.2510767   0.3742173), wk =   0.0370370
        k(   49) = (  -0.0869755   0.0502153   0.0748435), wk =   0.0185185
        k(   50) = (  -0.0869755   0.0502153   0.2245304), wk =   0.0185185
        k(   51) = (  -0.0869755   0.0502153   0.3742173), wk =   0.0185185
        k(   52) = (  -0.2609266  -0.6527995   0.0748435), wk =   0.0370370
        k(   53) = (  -0.2609266  -0.6527995   0.2245304), wk =   0.0370370
        k(   54) = (  -0.2609266  -0.6527995   0.3742173), wk =   0.0370370
        k(   55) = (  -0.2609266   0.3515074   0.0748435), wk =   0.0370370
        k(   56) = (  -0.2609266   0.3515074   0.2245304), wk =   0.0370370
        k(   57) = (  -0.2609266   0.3515074   0.3742173), wk =   0.0370370
        k(   58) = (  -0.2609266   0.1506460   0.0748435), wk =   0.0185185
        k(   59) = (  -0.2609266   0.1506460   0.2245304), wk =   0.0185185
        k(   60) = (  -0.2609266   0.1506460   0.3742173), wk =   0.0185185
        k(   61) = (  -0.4348776   0.2510767   0.0748435), wk =   0.0185185
        k(   62) = (  -0.4348776   0.2510767   0.2245304), wk =   0.0185185
        k(   63) = (  -0.4348776   0.2510767   0.3742173), wk =   0.0185185
     extrapolated charge   17.33061, renormalised to   24.00000

     total cpu time spent up to now is      231.2 secs

     per-process dynamical memory:    18.8 Mb

     Self-consistent Calculation

     iteration #  1     ecut=   100.00 Ry     beta=0.30
     Davidson diagonalization with overlap
     ethr =  1.00E-06,  avg # of iterations =  8.9

     total cpu time spent up to now is      259.5 secs

     total energy              =    -137.08377809 Ry
     Harris-Foulkes estimate   =    -143.21647284 Ry
     estimated scf accuracy    <       6.69676679 Ry

     iteration #  2     ecut=   100.00 Ry     beta=0.30
     Davidson diagonalization with overlap
     ethr =  1.00E-02,  avg # of iterations =  2.8

     total cpu time spent up to now is      272.7 secs

     total energy              =    -138.76344503 Ry
     Harris-Foulkes estimate   =    -138.91392006 Ry
     estimated scf accuracy    <       0.68413230 Ry

     iteration #  3     ecut=   100.00 Ry     beta=0.30
     Davidson diagonalization with overlap
     ethr =  2.85E-03,  avg # of iterations =  1.6

     total cpu time spent up to now is      281.3 secs

     total energy              =    -138.71410691 Ry
     Harris-Foulkes estimate   =    -138.80012411 Ry
     estimated scf accuracy    <       0.20348717 Ry

     iteration #  4     ecut=   100.00 Ry     beta=0.30
     Davidson diagonalization with overlap
     ethr =  8.48E-04,  avg # of iterations =  3.4

     total cpu time spent up to now is      291.4 secs

     total energy              =    -138.83973130 Ry
     Harris-Foulkes estimate   =    -138.79794569 Ry
     estimated scf accuracy    <       0.14438735 Ry

     iteration #  5     ecut=   100.00 Ry     beta=0.30
     Davidson diagonalization with overlap
     ethr =  6.02E-04,  avg # of iterations =  2.4

     total cpu time spent up to now is      300.3 secs

     total energy              =    -138.68564717 Ry
     Harris-Foulkes estimate   =    -138.85350595 Ry
     estimated scf accuracy    <       0.38871786 Ry

     iteration #  6     ecut=   100.00 Ry     beta=0.30
     Davidson diagonalization with overlap
     ethr =  6.02E-04,  avg # of iterations =  3.6

     total cpu time spent up to now is      312.6 secs

     total energy              =    -138.76630819 Ry
     Harris-Foulkes estimate   =    -138.77087072 Ry
     estimated scf accuracy    <       0.01609569 Ry

     iteration #  7     ecut=   100.00 Ry     beta=0.30
     Davidson diagonalization with overlap
     ethr =  6.71E-05,  avg # of iterations =  2.1

     total cpu time spent up to now is      321.5 secs

     total energy              =    -138.76518966 Ry
     Harris-Foulkes estimate   =    -138.76742630 Ry
     estimated scf accuracy    <       0.00406530 Ry

     iteration #  8     ecut=   100.00 Ry     beta=0.30
     Davidson diagonalization with overlap
     ethr =  1.69E-05,  avg # of iterations =  3.3

     total cpu time spent up to now is      333.2 secs

     total energy              =    -138.76841469 Ry
     Harris-Foulkes estimate   =    -138.76862504 Ry
     estimated scf accuracy    <       0.00108382 Ry

     iteration #  9     ecut=   100.00 Ry     beta=0.30
     Davidson diagonalization with overlap
     ethr =  4.52E-06,  avg # of iterations =  1.4

     total cpu time spent up to now is      341.6 secs

     total energy              =    -138.76829619 Ry
     Harris-Foulkes estimate   =    -138.76846292 Ry
     estimated scf accuracy    <       0.00048751 Ry

     iteration # 10     ecut=   100.00 Ry     beta=0.30
     Davidson diagonalization with overlap
     ethr =  2.03E-06,  avg # of iterations =  3.1

     total cpu time spent up to now is      351.9 secs

     total energy              =    -138.76841260 Ry
     Harris-Foulkes estimate   =    -138.76842396 Ry
     estimated scf accuracy    <       0.00003798 Ry

     iteration # 11     ecut=   100.00 Ry     beta=0.30
     Davidson diagonalization with overlap
     ethr =  1.58E-07,  avg # of iterations =  3.3

     total cpu time spent up to now is      362.6 secs

     total energy              =    -138.76842016 Ry
     Harris-Foulkes estimate   =    -138.76841788 Ry
     estimated scf accuracy    <       0.00000609 Ry

     iteration # 12     ecut=   100.00 Ry     beta=0.30
     Davidson diagonalization with overlap
     ethr =  2.54E-08,  avg # of iterations =  2.7

     total cpu time spent up to now is      373.1 secs

     total energy              =    -138.76841594 Ry
     Harris-Foulkes estimate   =    -138.76842128 Ry
     estimated scf accuracy    <       0.00002091 Ry

     iteration # 13     ecut=   100.00 Ry     beta=0.30
     Davidson diagonalization with overlap
     ethr =  2.54E-08,  avg # of iterations =  2.9

     total cpu time spent up to now is      383.8 secs

     total energy              =    -138.76841687 Ry
     Harris-Foulkes estimate   =    -138.76841743 Ry
     estimated scf accuracy    <       0.00000227 Ry

     iteration # 14     ecut=   100.00 Ry     beta=0.30
     Davidson diagonalization with overlap
     ethr =  9.46E-09,  avg # of iterations =  1.9

     total cpu time spent up to now is      392.5 secs

     End of self-consistent calculation

          k = 0.0870 0.1506 0.0748 (  3927 PWs)   bands (ev):

   -25.0432  -9.4069  -6.5231  -5.9995  -5.9020  -1.1689   5.5193   8.8024
     9.7718  10.4629  14.8455  15.4932

          k = 0.0870 0.1506 0.2245 (  3931 PWs)   bands (ev):

   -25.0161  -9.8908  -6.3600  -5.9781  -5.4163  -1.1329   4.7504   8.8383
     9.7610  10.1096  15.3049  16.0960

          k = 0.0870 0.1506 0.3742 (  3917 PWs)   bands (ev):

   -24.9887 -10.2758  -6.2788  -5.9567  -4.9277  -1.1009   4.0789   8.8590
     9.7238   9.7961  15.3339  15.8802

          k = 0.0870 0.3515 0.0748 (  3923 PWs)   bands (ev):

   -24.8798  -9.2156  -6.4469  -6.2657  -5.6952  -2.8691   5.6370   8.0238
     9.3186  10.7001  15.4270  16.8302

          k = 0.0870 0.3515 0.2245 (  3919 PWs)   bands (ev):

   -24.8594  -9.2432  -6.8608  -6.2087  -5.3353  -2.9088   5.4426   8.0130
     8.7899  10.6549  15.7324  17.6425

          k = 0.0870 0.3515 0.3742 (  3914 PWs)   bands (ev):

   -24.8389  -9.2844  -7.0489  -6.1580  -5.2626  -2.8468   5.2183   7.9622
     8.4098  10.6549  15.9704  17.5703

          k = 0.0870 0.5524 0.0748 (  3919 PWs)   bands (ev):

   -24.7560  -9.1319  -6.5182  -6.1730  -5.1454  -4.4229   5.8764   7.5319
     8.3195  10.7758  16.5305  17.4352

          k = 0.0870 0.5524 0.2245 (  3926 PWs)   bands (ev):

   -24.7408  -8.7525  -6.6792  -6.3518  -5.7084  -4.1995   6.2505   7.3690
     7.7625  10.9557  16.5657  18.4515

          k = 0.0870 0.5524 0.3742 (  3917 PWs)   bands (ev):

   -24.7255  -8.0653  -7.1420  -6.5165  -6.2747  -3.9581   6.4883   7.0951
     7.4895  11.2040  16.5156  18.5479

          k = 0.0870-0.4519 0.0748 (  3917 PWs)   bands (ev):

   -24.8017  -9.1370  -6.4967  -6.2640  -5.5222  -3.6359   5.6650   7.7499
     8.7590  10.8563  15.9813  17.1487

          k = 0.0870-0.4519 0.2245 (  3915 PWs)   bands (ev):

   -24.7846  -8.8643  -6.9984  -6.2968  -5.5032  -3.5862   5.6741   7.7383
     8.2503  11.0075  16.0931  17.9234

          k = 0.0870-0.4519 0.3742 (  3914 PWs)   bands (ev):

   -24.7674  -8.5327  -7.4056  -6.2464  -5.7311  -3.5383   5.7668   7.6468
     7.8165  11.0764  16.2430  18.0865

          k = 0.0870-0.2511 0.0748 (  3935 PWs)   bands (ev):

   -24.9682  -9.3004  -6.5371  -6.1165  -5.8335  -1.9366   5.4987   8.4447
     9.9838  10.3797  15.1525  15.8052

          k = 0.0870-0.2511 0.2245 (  3920 PWs)   bands (ev):

   -24.9441  -9.5898  -6.6818  -6.0829  -5.3602  -1.8950   4.9543   8.4620
     9.5535  10.3178  15.4188  16.6667

          k = 0.0870-0.2511 0.3742 (  3930 PWs)   bands (ev):

   -24.9199  -9.8629  -6.6723  -6.0499  -5.0480  -1.8791   4.5411   8.4151
     9.1450  10.2323  15.6078  16.6183

          k = 0.0870-0.0502 0.0748 (  3953 PWs)   bands (ev):

   -25.0859  -9.4718  -6.5122  -5.9387  -5.9192  -0.6912   5.5439   9.0037
     9.3542  10.7157  14.4829  15.5822

          k = 0.0870-0.0502 0.2245 (  3924 PWs)   bands (ev):

   -25.0571 -10.0501  -6.1098  -5.9222  -5.5099  -0.6667   4.6323   9.0616
     9.4321  10.4284  15.2704  16.3599

          k = 0.0870-0.0502 0.3742 (  3900 PWs)   bands (ev):

   -25.0279 -10.4853  -6.0298  -5.9060  -4.8820  -0.6482   3.8209   9.1489
     9.4924  10.1347  15.1503  15.4292

          k = 0.2609 0.4519 0.0748 (  3913 PWs)   bands (ev):

   -24.7567  -8.8651  -7.1343  -6.1802  -5.2308  -3.8896   5.9863   6.7651
     8.0910  12.5725  15.0980  18.2931

          k = 0.2609 0.4519 0.2245 (  3920 PWs)   bands (ev):

   -24.7414  -8.5641  -6.9407  -6.6089  -5.4168  -4.1497   6.0083   7.1172
     7.7917  12.4522  15.2571  18.6881

          k = 0.2609 0.4519 0.3742 (  3907 PWs)   bands (ev):

   -24.7260  -8.0773  -7.2005  -6.6503  -5.6702  -4.4608   6.1925   7.2814
     7.5507  12.3016  15.3916  18.6843

          k = 0.2609 0.6528 0.0748 (  3906 PWs)   bands (ev):

   -24.7233  -8.6288  -7.5477  -6.0943  -4.9271  -4.2947   6.2534   6.4951
     7.5327  13.1154  15.0286  18.4411

          k = 0.2609 0.6528 0.2245 (  3912 PWs)   bands (ev):

   -24.7093  -8.2594  -7.3003  -6.3499  -5.4457  -4.6247   6.4052   6.8324
     7.3647  13.0680  15.0398  19.0169

          k = 0.2609 0.6528 0.3742 (  3912 PWs)   bands (ev):

   -24.6953  -7.6104  -7.0317  -6.7000  -6.0711  -5.0399   6.6409   7.0790
     7.2250  12.9717  15.0216  18.9318

          k = 0.2609-0.3515 0.0748 (  3914 PWs)   bands (ev):

   -24.8142  -9.0799  -6.6482  -6.3174  -5.4916  -3.4097   5.7559   7.3295
     8.7483  11.6481  15.2875  17.5301

          k = 0.2609-0.3515 0.2245 (  3928 PWs)   bands (ev):

   -24.7965  -8.9219  -6.8189  -6.5187  -5.3683  -3.5363   5.6869   7.5220
     8.3006  11.5240  15.5549  18.1834

          k = 0.2609-0.3515 0.3742 (  3919 PWs)   bands (ev):

   -24.7787  -8.7295  -7.1928  -6.3832  -5.4488  -3.6260   5.6961   7.5790
     7.9593  11.4248  15.7658  18.2123

          k = 0.2609-0.1506 0.0748 (  3925 PWs)   bands (ev):

   -24.9360  -9.2845  -6.5027  -6.0986  -5.8226  -2.3314   5.5884   8.4713
     9.7116  10.2171  15.3209  16.3115

          k = 0.2609-0.1506 0.2245 (  3928 PWs)   bands (ev):

   -24.9133  -9.4808  -6.7704  -6.0743  -5.3326  -2.3408   5.2309   8.3600
     9.2157  10.2133  15.6263  17.8587

          k = 0.2609-0.1506 0.3742 (  3925 PWs)   bands (ev):

   -24.8904  -9.6718  -6.8376  -6.0506  -5.1141  -2.2523   4.8274   8.2838
     8.8360  10.2379  15.8843  16.9939

          k = 0.4349 0.7532 0.0748 (  3910 PWs)   bands (ev):

   -24.7352  -8.9166  -7.0473  -6.1188  -4.9881  -4.3952   6.0796   6.8278
     7.9237  11.9651  15.8684  17.8346

          k = 0.4349 0.7532 0.2245 (  3917 PWs)   bands (ev):

   -24.7208  -8.5214  -6.9255  -6.3689  -5.6579  -4.3971   6.3879   6.9319
     7.5710  12.0066  15.8674  18.7317

          k = 0.4349 0.7532 0.3742 (  3925 PWs)   bands (ev):

   -24.7063  -7.8142  -6.8663  -6.6538  -6.4715  -4.4516   6.6767   6.9905
     7.3045  12.0613  15.8189  18.7976

          k = 0.4349-0.2511 0.0748 (  3928 PWs)   bands (ev):

   -24.7803  -9.2033  -6.2635  -6.2536  -5.3676  -4.1655   5.7854   8.0463
     8.5624  10.1845  16.5619  17.4818

          k = 0.4349-0.2511 0.2245 (  3928 PWs)   bands (ev):

   -24.7641  -8.8831  -6.7927  -6.2225  -5.5830  -4.0041   6.0905   7.8263
     7.8376  10.4691  16.7423  19.0322

          k = 0.4349-0.2511 0.3742 (  3911 PWs)   bands (ev):

   -24.7478  -8.3439  -7.3375  -6.1913  -6.1197  -3.6779   6.1643   7.3897
     7.6491  10.8029  16.7452  18.2888

          k =-0.0870-0.3515 0.0748 (  3923 PWs)   bands (ev):

   -24.8798  -9.1973  -6.5134  -6.2443  -5.7102  -2.8023   5.5399   8.0624
     9.3719  10.7757  15.4154  16.5888

          k =-0.0870-0.3515 0.2245 (  3919 PWs)   bands (ev):

   -24.8594  -9.2041  -6.9458  -6.2022  -5.3805  -2.7740   5.2633   8.0674
     8.8979  10.7900  15.6681  17.3385

          k =-0.0870-0.3515 0.3742 (  3914 PWs)   bands (ev):

   -24.8389  -9.2647  -7.0891  -6.1563  -5.2844  -2.7812   5.1318   7.9831
     8.4652  10.7157  15.9293  17.4187

          k =-0.0870-0.5524 0.0748 (  3919 PWs)   bands (ev):

   -24.7560  -9.1225  -6.5336  -6.1726  -5.2221  -4.3308   5.8230   7.5586
     8.3425  10.8035  16.5189  17.3054

          k =-0.0870-0.5524 0.2245 (  3926 PWs)   bands (ev):

   -24.7408  -8.7192  -6.7761  -6.3264  -5.7365  -4.1158   6.1134   7.4521
     7.8055  11.0194  16.4916  18.3120

          k =-0.0870-0.5524 0.3742 (  3917 PWs)   bands (ev):

   -24.7255  -7.9869  -7.2991  -6.4358  -6.2944  -3.9324   6.3835   7.1806
     7.5019  11.2408  16.4655  18.4909

          k =-0.0870 0.4519 0.0748 (  3917 PWs)   bands (ev):

   -24.8017  -9.1582  -6.4371  -6.2803  -5.4674  -3.7368   5.7744   7.7037
     8.7039  10.7843  16.0199  17.4484

          k =-0.0870 0.4519 0.2245 (  3915 PWs)   bands (ev):

   -24.7846  -8.9280  -6.8566  -6.3170  -5.4357  -3.7564   5.8941   7.6716
     8.1211  10.8565  16.2379  18.2171

          k =-0.0870 0.4519 0.3742 (  3914 PWs)   bands (ev):

   -24.7673  -8.5944  -7.3004  -6.2546  -5.7209  -3.6047   5.8793   7.6426
     7.7229  10.9977  16.3344  18.2244

          k =-0.0870 0.2511 0.0748 (  3935 PWs)   bands (ev):

   -24.9682  -9.3080  -6.5123  -6.1198  -5.8338  -1.9641   5.5476   8.4208
     9.9535  10.3518  15.1161  15.8996

          k =-0.0870 0.2511 0.2245 (  3920 PWs)   bands (ev):

   -24.9441  -9.6014  -6.6542  -6.0836  -5.3450  -1.9554   5.0422   8.4199
     9.5035  10.2745  15.3658  16.8798

          k =-0.0870 0.2511 0.3742 (  3930 PWs)   bands (ev):

   -24.9199  -9.8676  -6.6618  -6.0498  -5.0370  -1.9123   4.5832   8.3949
     9.1223  10.2158  15.5866  16.7220

          k =-0.0870 0.0502 0.0748 (  3953 PWs)   bands (ev):

   -25.0859  -9.4708  -6.5156  -5.9391  -5.9179  -0.6867   5.5334   9.0303
     9.3380  10.7199  14.4776  15.6798

          k =-0.0870 0.0502 0.2245 (  3924 PWs)   bands (ev):

   -25.0571 -10.0490  -6.1126  -5.9230  -5.5111  -0.6557   4.6144   9.1182
     9.3889  10.4367  15.4764  15.5202

          k =-0.0870 0.0502 0.3742 (  3900 PWs)   bands (ev):

   -25.0279 -10.4849  -6.0302  -5.9064  -4.8840  -0.6413   3.8121   9.1790
     9.4659  10.1404  15.2543  15.3129

          k =-0.2609-0.6528 0.0748 (  3906 PWs)   bands (ev):

   -24.7233  -8.6325  -7.5428  -6.0949  -4.9128  -4.3111   6.3315   6.4192
     7.5310  13.1036  15.0437  18.4915

          k =-0.2609-0.6528 0.2245 (  3912 PWs)   bands (ev):

   -24.7093  -8.2725  -7.2791  -6.3544  -5.4304  -4.6462   6.4597   6.7886
     7.3549  13.0413  15.0725  19.0485

          k =-0.2609-0.6528 0.3742 (  3912 PWs)   bands (ev):

   -24.6953  -7.6417  -6.9186  -6.7807  -6.0661  -5.0471   6.6587   7.0893
     7.1974  12.9567  15.0399  18.9424

          k =-0.2609 0.3515 0.0748 (  3914 PWs)   bands (ev):

   -24.8142  -9.0697  -6.6767  -6.3085  -5.5088  -3.3723   5.7011   7.3606
     8.7694  11.6899  15.2452  17.3941

          k =-0.2609 0.3515 0.2245 (  3928 PWs)   bands (ev):

   -24.7966  -8.8946  -6.9078  -6.4789  -5.3968  -3.4660   5.5958   7.5525
     8.3535  11.6047  15.4654  18.0450

          k =-0.2609 0.3515 0.3742 (  3919 PWs)   bands (ev):

   -24.7787  -8.7096  -7.2329  -6.3749  -5.4597  -3.5939   5.6525   7.5820
     7.9950  11.4637  15.7196  18.1514

          k =-0.2609 0.1506 0.0748 (  3925 PWs)   bands (ev):

   -24.9360  -9.2665  -6.5545  -6.0994  -5.8238  -2.2661   5.4831   8.5096
     9.7831  10.2861  15.3896  16.0696

          k =-0.2609 0.1506 0.2245 (  3928 PWs)   bands (ev):

   -24.9133  -9.4495  -6.8372  -6.0759  -5.3724  -2.2015   5.0352   8.4346
     9.3312  10.3302  15.7246  17.3070

          k =-0.2609 0.1506 0.3742 (  3925 PWs)   bands (ev):

   -24.8904  -9.6584  -6.8658  -6.0514  -5.1386  -2.1792   4.7333   8.3201
     8.8887  10.2862  15.9226  16.7634

          k =-0.4349 0.2511 0.0748 (  3928 PWs)   bands (ev):

   -24.7804  -9.1848  -6.2976  -6.2540  -5.4610  -4.0347   5.6907   8.0611
     8.6323  10.2441  16.6059  17.1191

          k =-0.4349 0.2511 0.2245 (  3928 PWs)   bands (ev):

   -24.7642  -8.8211  -6.9243  -6.2232  -5.6424  -3.8347   5.8641   7.8652
     7.9966  10.5997  16.6423  17.9993

          k =-0.4349 0.2511 0.3742 (  3911 PWs)   bands (ev):

   -24.7478  -8.2434  -7.4962  -6.1917  -6.0990  -3.6216   6.0287   7.4959
     7.6620  10.8743  16.6604  18.1647

!    total energy              =    -138.76841674 Ry
     Harris-Foulkes estimate   =    -138.76841702 Ry
     estimated scf accuracy    <       0.00000034 Ry

     The total energy is the sum of the following terms:

     one-electron contribution =      -8.81822140 Ry
     hartree contribution      =      22.68475502 Ry
     xc contribution           =     -26.88433174 Ry
     ewald contribution        =    -125.75061862 Ry

     convergence has been achieved in  14 iterations

     Forces acting on atoms (Ry/au):

     atom    1 type  3   force =     0.00000000    0.00000000    0.00567569
     atom    2 type  2   force =    -0.00000000   -0.00000000   -0.41722724
     atom    3 type  2   force =    -0.00000000   -0.00000000    0.37399515
     atom    4 type  1   force =     0.00000000    0.00000000    0.14455501
     atom    5 type  1   force =     0.00000000    0.00000000   -0.10699861

     Total force =     0.588496     Total SCF correction =     0.000347


     entering subroutine stress ...

          total   stress  (Ry/bohr**3)                   (kbar)     P= 2016.66
   0.01720990   0.00000000   0.00000000       2531.66      0.00      0.00
   0.00000000   0.01720990   0.00000000          0.00   2531.66      0.00
   0.00000000   0.00000000   0.00670704          0.00      0.00    986.64


     number of scf cycles    =   2
     number of bfgs steps    =   1

     enthalpy old            =    -136.5027793618 Ry
     enthalpy new            =    -136.8104098617 Ry

     CASE: enthalpy_new < enthalpy_old

     new trust radius        =       0.8000000000 bohr
     new conv_thr            =       0.0000010000 Ry

     new unit-cell volume =    133.67400 a.u.^3 (    19.80844 Ang^3 )

CELL_PARAMETERS (alat=  5.86000000)
   0.991833523  -0.000000000   0.000000000
  -0.495916762   0.858953027  -0.000000000
   0.000000000   0.000000000   0.779732957

ATOMIC_POSITIONS (crystal)
Ca       0.000000000   0.000000000   0.000692990
O        0.333333333   0.666666667   0.405280829
O        0.666666667   0.333333333   0.599161629
H        0.333333333   0.666666667   0.728127667
H        0.666666667   0.333333333   0.276736885



     Writing output data file CaOH2_ambient.save
     NEW-OLD atomic charge density approx. for the potential
     NEW k-points:
        k(    1) = (   0.0840195   0.1455260   0.1068742), wk =   0.0370370
        k(    2) = (   0.0840195   0.1455260   0.3206226), wk =   0.0370370
        k(    3) = (   0.0840195   0.1455260   0.5343710), wk =   0.0370370
        k(    4) = (   0.0840195   0.3395607   0.1068742), wk =   0.0370370
        k(    5) = (   0.0840195   0.3395607   0.3206226), wk =   0.0370370
        k(    6) = (   0.0840195   0.3395607   0.5343710), wk =   0.0370370
        k(    7) = (   0.0840195   0.5335953   0.1068742), wk =   0.0370370
        k(    8) = (   0.0840195   0.5335953   0.3206226), wk =   0.0370370
        k(    9) = (   0.0840195   0.5335953   0.5343710), wk =   0.0370370
        k(   10) = (   0.0840195  -0.4365780   0.1068742), wk =   0.0370370
        k(   11) = (   0.0840195  -0.4365780   0.3206226), wk =   0.0370370
        k(   12) = (   0.0840195  -0.4365780   0.5343710), wk =   0.0370370
        k(   13) = (   0.0840195  -0.2425433   0.1068742), wk =   0.0370370
        k(   14) = (   0.0840195  -0.2425433   0.3206226), wk =   0.0370370
        k(   15) = (   0.0840195  -0.2425433   0.5343710), wk =   0.0370370
        k(   16) = (   0.0840195  -0.0485087   0.1068742), wk =   0.0185185
        k(   17) = (   0.0840195  -0.0485087   0.3206226), wk =   0.0185185
        k(   18) = (   0.0840195  -0.0485087   0.5343710), wk =   0.0185185
        k(   19) = (   0.2520584   0.4365780   0.1068742), wk =   0.0370370
        k(   20) = (   0.2520584   0.4365780   0.3206226), wk =   0.0370370
        k(   21) = (   0.2520584   0.4365780   0.5343710), wk =   0.0370370
        k(   22) = (   0.2520584   0.6306127   0.1068742), wk =   0.0370370
        k(   23) = (   0.2520584   0.6306127   0.3206226), wk =   0.0370370
        k(   24) = (   0.2520584   0.6306127   0.5343710), wk =   0.0370370
        k(   25) = (   0.2520584  -0.3395607   0.1068742), wk =   0.0370370
        k(   26) = (   0.2520584  -0.3395607   0.3206226), wk =   0.0370370
        k(   27) = (   0.2520584  -0.3395607   0.5343710), wk =   0.0370370
        k(   28) = (   0.2520584  -0.1455260   0.1068742), wk =   0.0185185
        k(   29) = (   0.2520584  -0.1455260   0.3206226), wk =   0.0185185
        k(   30) = (   0.2520584  -0.1455260   0.5343710), wk =   0.0185185
        k(   31) = (   0.4200974   0.7276300   0.1068742), wk =   0.0370370
        k(   32) = (   0.4200974   0.7276300   0.3206226), wk =   0.0370370
        k(   33) = (   0.4200974   0.7276300   0.5343710), wk =   0.0370370
        k(   34) = (   0.4200974  -0.2425433   0.1068742), wk =   0.0185185
        k(   35) = (   0.4200974  -0.2425433   0.3206226), wk =   0.0185185
        k(   36) = (   0.4200974  -0.2425433   0.5343710), wk =   0.0185185
        k(   37) = (  -0.0840195  -0.3395607   0.1068742), wk =   0.0370370
        k(   38) = (  -0.0840195  -0.3395607   0.3206226), wk =   0.0370370
        k(   39) = (  -0.0840195  -0.3395607   0.5343710), wk =   0.0370370
        k(   40) = (  -0.0840195  -0.5335953   0.1068742), wk =   0.0370370
        k(   41) = (  -0.0840195  -0.5335953   0.3206226), wk =   0.0370370
        k(   42) = (  -0.0840195  -0.5335953   0.5343710), wk =   0.0370370
        k(   43) = (  -0.0840195   0.4365780   0.1068742), wk =   0.0370370
        k(   44) = (  -0.0840195   0.4365780   0.3206226), wk =   0.0370370
        k(   45) = (  -0.0840195   0.4365780   0.5343710), wk =   0.0370370
        k(   46) = (  -0.0840195   0.2425433   0.1068742), wk =   0.0370370
        k(   47) = (  -0.0840195   0.2425433   0.3206226), wk =   0.0370370
        k(   48) = (  -0.0840195   0.2425433   0.5343710), wk =   0.0370370
        k(   49) = (  -0.0840195   0.0485087   0.1068742), wk =   0.0185185
        k(   50) = (  -0.0840195   0.0485087   0.3206226), wk =   0.0185185
        k(   51) = (  -0.0840195   0.0485087   0.5343710), wk =   0.0185185
        k(   52) = (  -0.2520584  -0.6306127   0.1068742), wk =   0.0370370
        k(   53) = (  -0.2520584  -0.6306127   0.3206226), wk =   0.0370370
        k(   54) = (  -0.2520584  -0.6306127   0.5343710), wk =   0.0370370
        k(   55) = (  -0.2520584   0.3395607   0.1068742), wk =   0.0370370
        k(   56) = (  -0.2520584   0.3395607   0.3206226), wk =   0.0370370
        k(   57) = (  -0.2520584   0.3395607   0.5343710), wk =   0.0370370
        k(   58) = (  -0.2520584   0.1455260   0.1068742), wk =   0.0185185
        k(   59) = (  -0.2520584   0.1455260   0.3206226), wk =   0.0185185
        k(   60) = (  -0.2520584   0.1455260   0.5343710), wk =   0.0185185
        k(   61) = (  -0.4200974   0.2425433   0.1068742), wk =   0.0185185
        k(   62) = (  -0.4200974   0.2425433   0.3206226), wk =   0.0185185
        k(   63) = (  -0.4200974   0.2425433   0.5343710), wk =   0.0185185

     negative rho (up, down):  0.989E-03 0.000E+00
     extrapolated charge   16.68382, renormalised to   24.00000

     total cpu time spent up to now is      475.7 secs

     per-process dynamical memory:    18.8 Mb

     Self-consistent Calculation

     iteration #  1     ecut=   100.00 Ry     beta=0.30
     Davidson diagonalization with overlap
     ethr =  1.00E-06,  avg # of iterations =  8.4

     negative rho (up, down):  0.260E-03 0.000E+00

     total cpu time spent up to now is      506.6 secs

     total energy              =    -137.43242534 Ry
     Harris-Foulkes estimate   =    -138.58125070 Ry
     estimated scf accuracy    <       4.21909163 Ry

     iteration #  2     ecut=   100.00 Ry     beta=0.30
     Davidson diagonalization with overlap
     ethr =  1.00E-02,  avg # of iterations =  2.1

     total cpu time spent up to now is      518.8 secs

     total energy              =    -138.75449885 Ry
     Harris-Foulkes estimate   =    -138.91332482 Ry
     estimated scf accuracy    <       0.67420185 Ry

     iteration #  3     ecut=   100.00 Ry     beta=0.30
     Davidson diagonalization with overlap
     ethr =  2.81E-03,  avg # of iterations =  1.0

     total cpu time spent up to now is      527.0 secs

     total energy              =    -138.54638282 Ry
     Harris-Foulkes estimate   =    -138.76571946 Ry
     estimated scf accuracy    <       0.35976322 Ry

     iteration #  4     ecut=   100.00 Ry     beta=0.30
     Davidson diagonalization with overlap
     ethr =  1.50E-03,  avg # of iterations =  2.0

     total cpu time spent up to now is      538.4 secs

     total energy              =    -138.60344105 Ry
     Harris-Foulkes estimate   =    -138.60433117 Ry
     estimated scf accuracy    <       0.00758136 Ry

     iteration #  5     ecut=   100.00 Ry     beta=0.30
     Davidson diagonalization with overlap
     ethr =  3.16E-05,  avg # of iterations =  1.7

     total cpu time spent up to now is      546.9 secs

     total energy              =    -138.60243490 Ry
     Harris-Foulkes estimate   =    -138.60379038 Ry
     estimated scf accuracy    <       0.00438922 Ry

     iteration #  6     ecut=   100.00 Ry     beta=0.30
     Davidson diagonalization with overlap
     ethr =  1.83E-05,  avg # of iterations =  2.0

     total cpu time spent up to now is      556.9 secs

     total energy              =    -138.60287363 Ry
     Harris-Foulkes estimate   =    -138.60295864 Ry
     estimated scf accuracy    <       0.00029964 Ry

     iteration #  7     ecut=   100.00 Ry     beta=0.30
     Davidson diagonalization with overlap
     ethr =  1.25E-06,  avg # of iterations =  2.0

     total cpu time spent up to now is      565.9 secs

     total energy              =    -138.60285865 Ry
     Harris-Foulkes estimate   =    -138.60289690 Ry
     estimated scf accuracy    <       0.00007678 Ry

     iteration #  8     ecut=   100.00 Ry     beta=0.30
     Davidson diagonalization with overlap
     ethr =  3.20E-07,  avg # of iterations =  2.0

     total cpu time spent up to now is      577.3 secs

     total energy              =    -138.60287556 Ry
     Harris-Foulkes estimate   =    -138.60287915 Ry
     estimated scf accuracy    <       0.00001278 Ry

     iteration #  9     ecut=   100.00 Ry     beta=0.30
     Davidson diagonalization with overlap
     ethr =  5.32E-08,  avg # of iterations =  1.6

     total cpu time spent up to now is      585.7 secs

     total energy              =    -138.60287359 Ry
     Harris-Foulkes estimate   =    -138.60287611 Ry
     estimated scf accuracy    <       0.00000454 Ry

     iteration # 10     ecut=   100.00 Ry     beta=0.30
     Davidson diagonalization with overlap
     ethr =  1.89E-08,  avg # of iterations =  2.2

     total cpu time spent up to now is      596.8 secs

     End of self-consistent calculation

          k = 0.0840 0.1455 0.1069 (  3927 PWs)   bands (ev):

   -19.7243  -5.3614  -0.8089  -0.2498   0.9155   0.9794  12.5367  12.9260
    13.7262  15.2149  20.1244  20.9580

          k = 0.0840 0.1455 0.3206 (  3931 PWs)   bands (ev):

   -19.2551  -5.6665  -0.9314  -0.4143   0.9794   1.4342  10.0613  13.2427
    13.5673  14.1632  19.1910  20.4426

          k = 0.0840 0.1455 0.5344 (  3917 PWs)   bands (ev):

   -18.7157  -6.4830  -0.6158   0.0161   0.7902   1.9754   8.0433  11.9001
    13.7762  14.3892  18.7379  19.5265

          k = 0.0840 0.3396 0.1069 (  3923 PWs)   bands (ev):

   -19.4702  -6.1479  -1.8927  -0.1179   0.7739   1.7429  12.7701  13.3332
    14.7529  15.5652  19.4403  21.4834

          k = 0.0840 0.3396 0.3206 (  3919 PWs)   bands (ev):

   -19.0404  -5.6520  -1.6816  -0.9662   0.6650   1.3977  10.8706  12.5221
    13.2543  15.4644  19.9606  21.6186

          k = 0.0840 0.3396 0.5344 (  3914 PWs)   bands (ev):

   -18.5544  -5.5429  -1.7824  -0.3294   0.0299   0.9149   9.5193  10.8280
    12.9847  15.3500  20.4893  21.2552

          k = 0.0840 0.5336 0.1069 (  3919 PWs)   bands (ev):

   -19.2714  -6.6265  -2.7121  -0.3355   0.9775   2.4857  12.9709  13.3945
    14.5759  15.9015  20.1594  21.7734

          k = 0.0840 0.5336 0.3206 (  3926 PWs)   bands (ev):

   -18.8747  -5.6498  -2.4449  -0.9475   0.4410   1.2192  11.4854  12.0703
    13.3323  16.3025  20.3002  22.0544

          k = 0.0840 0.5336 0.5344 (  3917 PWs)   bands (ev):

   -18.4318  -4.0799  -3.0879  -1.1656  -0.4791   0.4978   9.6170  11.2238
    12.6228  16.9162  20.2457  22.2010

          k = 0.0840-0.4366 0.1069 (  3917 PWs)   bands (ev):

   -19.3456  -6.4519  -2.4281  -0.2723   0.9305   2.1970  12.5431  13.6617
    14.8004  16.1069  19.6736  21.3023

          k = 0.0840-0.4366 0.3206 (  3915 PWs)   bands (ev):

   -18.9364  -5.6282  -2.2397  -0.9654   0.5564   1.3219  10.7225  12.7098
    13.5020  16.3786  19.9343  21.1525

          k = 0.0840-0.4366 0.5344 (  3914 PWs)   bands (ev):

   -18.4772  -4.8108  -2.5129  -0.6155  -0.4319   0.6444   9.4564  11.1529
    12.8560  16.3578  20.4229  21.4413

          k = 0.0840-0.2425 0.1069 (  3935 PWs)   bands (ev):

   -19.6087  -5.7499  -1.2951  -0.0811   0.7865   1.2352  12.4663  13.2486
    14.8136  15.1179  19.7222  20.8786

          k = 0.0840-0.2425 0.3206 (  3920 PWs)   bands (ev):

   -19.1571  -5.6455  -1.3303  -0.7085   0.9885   1.3276  10.1573  13.2911
    13.5488  14.7654  19.4124  20.6733

          k = 0.0840-0.2425 0.5344 (  3930 PWs)   bands (ev):

   -18.6418  -6.0947  -1.2118  -0.1226   0.5143   1.4743   8.6278  11.4273
    13.5819  14.6222  19.5073  20.3895

          k = 0.0840-0.0485 0.1069 (  3953 PWs)   bands (ev):

   -19.7894  -5.1034  -0.5994  -0.4593   0.7896   1.2450  12.5223  12.7160
    13.1015  15.2676  20.4222  20.9972

          k = 0.0840-0.0485 0.3206 (  3924 PWs)   bands (ev):

   -19.3106  -5.6807  -0.5932  -0.2674   0.6870   1.7286   9.9786  13.0782
    13.5599  14.0121  19.2040  20.0832

          k = 0.0840-0.0485 0.5344 (  3900 PWs)   bands (ev):

   -18.7578  -6.6796  -0.1963   0.0850   0.8635   2.2821   7.6590  12.2663
    13.8966  14.4261  18.2827  18.7682

          k = 0.2521 0.4366 0.1069 (  3913 PWs)   bands (ev):

   -19.2738  -6.2099  -3.9715   0.7903   1.4360   1.9673  12.2831  13.2910
    14.3492  17.3520  18.9332  22.4128

          k = 0.2521 0.4366 0.3206 (  3920 PWs)   bands (ev):

   -18.8764  -5.3517  -3.1024  -1.1803   1.1352   1.2610  11.1239  12.0734
    13.5329  16.8146  19.3744  22.3176

          k = 0.2521 0.4366 0.5344 (  3907 PWs)   bands (ev):

   -18.4326  -4.3133  -2.2239  -1.5760  -0.5498   0.1226  10.3489  10.5516
    13.7954  16.1299  19.7145  22.1403

          k = 0.2521 0.6306 0.1069 (  3906 PWs)   bands (ev):

   -19.2196  -6.0461  -4.6269   0.8762   1.5872   2.2006  12.1620  13.3335
    14.0166  17.7649  18.9314  22.8125

          k = 0.2521 0.6306 0.3206 (  3912 PWs)   bands (ev):

   -18.8315  -5.0849  -3.7449  -1.0595   1.1468   1.2362  11.3983  11.9944
    13.2908  17.4485  18.9265  22.6332

          k = 0.2521 0.6306 0.5344 (  3912 PWs)   bands (ev):

   -18.3994  -3.5232  -2.7409  -1.8973  -0.7653  -0.1190  10.3068  10.8411
    13.9062  16.9732  18.8292  22.3472

          k = 0.2521-0.3396 0.1069 (  3914 PWs)   bands (ev):

   -19.3660  -6.2607  -2.9992   0.5304   1.0182   1.8323  12.5077  13.3129
    14.6799  16.4653  19.1632  21.8778

          k = 0.2521-0.3396 0.3206 (  3928 PWs)   bands (ev):

   -18.9532  -5.5586  -2.2460  -1.2829   0.9812   1.3259  10.9293  12.2390
    13.5893  16.0130  19.8443  21.9218

          k = 0.2521-0.3396 0.5344 (  3919 PWs)   bands (ev):

   -18.4895  -5.0019  -2.0194  -0.9268  -0.2498   0.5212  10.0070  10.5718
    13.4335  15.5574  20.3807  21.7624

          k = 0.2521-0.1455 0.1069 (  3925 PWs)   bands (ev):

   -19.5585  -5.9343  -0.8763  -0.7686   0.6794   1.5672  12.9623  13.1340
    14.5109  15.2467  19.5528  21.3473

          k = 0.2521-0.1455 0.3206 (  3928 PWs)   bands (ev):

   -19.1147  -5.6676  -1.5075  -0.4845   0.5244   1.4158  10.7307  12.8421
    12.9815  15.1267  19.7434  21.3714

          k = 0.2521-0.1455 0.5344 (  3925 PWs)   bands (ev):

   -18.6099  -5.9129  -1.4679  -0.0640   0.3213   1.2136   9.0932  11.1101
    12.9153  15.1406  20.1618  20.7295

          k = 0.4201 0.7276 0.1069 (  3910 PWs)   bands (ev):

   -19.2383  -6.4055  -3.8048   0.5630   1.1119   2.4153  12.5839  13.1888
    14.3193  16.9071  19.5413  22.3996

          k = 0.4201 0.7276 0.3206 (  3917 PWs)   bands (ev):

   -18.8471  -5.4115  -3.1199  -1.0543   0.8995   1.2133  11.3421  12.0540
    13.4210  16.8552  19.5734  22.3767

          k = 0.4201 0.7276 0.5344 (  3925 PWs)   bands (ev):

   -18.4112  -3.5724  -3.2381  -1.2496  -0.9337   0.2433   9.8920  11.1029
    13.2967  17.0129  19.4585  22.2993

          k = 0.4201-0.2425 0.1069 (  3928 PWs)   bands (ev):

   -19.3106  -6.6289  -1.7512  -1.1372   0.9200   2.4235  12.9983  13.8216
    14.5346  15.3898  20.3921  21.3913

          k = 0.4201-0.2425 0.3206 (  3928 PWs)   bands (ev):

   -18.9073  -5.7185  -2.1267  -0.7001   0.0662   1.2753  11.6820  12.0354
    13.0909  16.0315  20.5987  21.9172

          k = 0.4201-0.2425 0.5344 (  3911 PWs)   bands (ev):

   -18.4559  -4.5337  -2.7774  -1.0213  -0.2141   0.6042   9.5850  11.1720
    12.3479  16.6560  20.6570  22.0643

          k =-0.0840-0.3396 0.1069 (  3923 PWs)   bands (ev):

   -19.4702  -6.1419  -1.9061  -0.1509   0.8293   1.7254  12.4521  13.5291
    14.9766  15.7758  19.4463  20.9933

          k =-0.0840-0.3396 0.3206 (  3919 PWs)   bands (ev):

   -19.0405  -5.6304  -1.7959  -0.9222   0.7210   1.4046  10.3775  12.9746
    13.5993  15.6715  19.7706  20.7768

          k =-0.0840-0.3396 0.5344 (  3914 PWs)   bands (ev):

   -18.5545  -5.5282  -1.8560  -0.2888   0.0190   0.9653   9.1856  11.1180
    13.1934  15.3922  20.3172  20.8897

          k =-0.0840-0.5336 0.1069 (  3919 PWs)   bands (ev):

   -19.2714  -6.6240  -2.7169  -0.3424   0.9902   2.4805  12.7391  13.6036
    14.6326  16.0142  20.0830  21.6465

          k =-0.0840-0.5336 0.3206 (  3926 PWs)   bands (ev):

   -18.8748  -5.6375  -2.4856  -0.9384   0.4755   1.2075  11.0994  12.4655
    13.3863  16.5339  20.0970  21.7053

          k =-0.0840-0.5336 0.5344 (  3917 PWs)   bands (ev):

   -18.4319  -4.0120  -3.2034  -1.0916  -0.5044   0.5018   9.5164  11.3117
    12.6590  17.0603  20.1039  22.0042

          k =-0.0840 0.4366 0.1069 (  3917 PWs)   bands (ev):

   -19.3455  -6.4579  -2.4159  -0.2517   0.8940   2.2100  12.9751  13.3146
    14.6388  15.8266  19.8055  21.6801

          k =-0.0840 0.4366 0.3206 (  3915 PWs)   bands (ev):

   -18.9362  -5.6544  -2.1360  -0.9977   0.4887   1.3340  11.4795  11.9581
    13.2993  15.9477  20.2793  22.0169

          k =-0.0840 0.4366 0.5344 (  3914 PWs)   bands (ev):

   -18.4771  -4.8474  -2.3853  -0.7895  -0.3457   0.6265   9.7777  10.8677
    12.7341  16.1649  20.5887  21.9360

          k =-0.0840 0.2425 0.1069 (  3935 PWs)   bands (ev):

   -19.6087  -5.7531  -1.2873  -0.0552   0.7358   1.2561  12.6153  13.1906
    14.5683  15.1593  19.5809  21.2296

          k =-0.0840 0.2425 0.3206 (  3920 PWs)   bands (ev):

   -19.1570  -5.6542  -1.2802  -0.7196   0.9683   1.3079  10.3770  13.1238
    13.2211  14.8261  19.4973  21.0342

          k =-0.0840 0.2425 0.5344 (  3930 PWs)   bands (ev):

   -18.6417  -6.0987  -1.1913  -0.1192   0.5334   1.4181   8.7607  11.3257
    13.3510  14.7257  19.7509  20.3837

          k =-0.0840 0.0485 0.1069 (  3953 PWs)   bands (ev):

   -19.7894  -5.1027  -0.6047  -0.4580   0.7933   1.2445  12.5331  12.6325
    13.1829  15.2715  20.6329  20.7527

          k =-0.0840 0.0485 0.3206 (  3924 PWs)   bands (ev):

   -19.3106  -5.6796  -0.5933  -0.2791   0.6934   1.7355   9.9358  13.3150
    13.4111  13.9980  19.2000  20.0214

          k =-0.0840 0.0485 0.5344 (  3900 PWs)   bands (ev):

   -18.7578  -6.6792  -0.1921   0.0783   0.8548   2.2989   7.6377  12.2707
    14.1701  14.1936  18.1568  18.8472

          k =-0.2521-0.6306 0.1069 (  3906 PWs)   bands (ev):

   -19.2196  -6.0470  -4.6258   0.8787   1.5822   2.2030  12.1854  13.3013
    14.0185  17.7270  18.9698  22.8268

          k =-0.2521-0.6306 0.3206 (  3912 PWs)   bands (ev):

   -18.8315  -5.0897  -3.7375  -1.0609   1.1497   1.2313  11.6427  11.7224
    13.3135  17.3601  19.0137  22.6802

          k =-0.2521-0.6306 0.5344 (  3912 PWs)   bands (ev):

   -18.3994  -3.5510  -2.6649  -1.9574  -0.7493  -0.1237  10.3600  10.7872
    13.9087  16.9193  18.8825  22.3709

          k =-0.2521 0.3396 0.1069 (  3914 PWs)   bands (ev):

   -19.3660  -6.2576  -3.0043   0.5017   1.0612   1.8188  12.3661  13.4362
    14.7324  16.6163  19.0588  21.7272

          k =-0.2521 0.3396 0.3206 (  3928 PWs)   bands (ev):

   -18.9533  -5.5463  -2.2970  -1.2571   0.9977   1.3277  10.6658  12.5304
    13.6408  16.2112  19.6610  21.5764

          k =-0.2521 0.3396 0.5344 (  3919 PWs)   bands (ev):

   -18.4896  -4.9894  -2.0912  -0.8418  -0.2839   0.5363   9.7623  10.8050
    13.4933  15.6194  20.3028  21.5690

          k =-0.2521 0.1455 0.1069 (  3925 PWs)   bands (ev):

   -19.5585  -5.9275  -0.8856  -0.8073   0.7362   1.5495  12.5050  13.3871
    15.0165  15.2287  19.8623  20.5479

          k =-0.2521 0.1455 0.3206 (  3928 PWs)   bands (ev):

   -19.1148  -5.6466  -1.5964  -0.5060   0.6137   1.4349  10.1998  13.2563
    13.5706  15.1674  19.5772  20.4837

          k =-0.2521 0.1455 0.5344 (  3925 PWs)   bands (ev):

   -18.6100  -5.9020  -1.5209  -0.0766   0.3117   1.3100   8.7764  11.3647
    13.2298  15.1104  19.7333  20.6002

          k =-0.4201 0.2425 0.1069 (  3928 PWs)   bands (ev):

   -19.3107  -6.6239  -1.7683  -1.1414   0.9433   2.4131  12.6829  13.9653
    14.7904  15.6133  20.3936  20.9497

          k =-0.4201 0.2425 0.3206 (  3928 PWs)   bands (ev):

   -18.9075  -5.6949  -2.2164  -0.7100   0.1709   1.2544  10.9151  12.7271
    13.3436  16.4393  20.3927  20.9910

          k =-0.4201 0.2425 0.5344 (  3911 PWs)   bands (ev):

   -18.4560  -4.4766  -2.9145  -0.9299  -0.2201   0.6109   9.3616  11.3514
    12.4564  16.8871  20.4815  21.5769

!    total energy              =    -138.60287474 Ry
     Harris-Foulkes estimate   =    -138.60287483 Ry
     estimated scf accuracy    <       0.00000015 Ry

     The total energy is the sum of the following terms:

     one-electron contribution =      12.09769575 Ry
     hartree contribution      =      17.20024038 Ry
     xc contribution           =     -27.94627521 Ry
     ewald contribution        =    -139.95453566 Ry

     convergence has been achieved in  10 iterations

     Forces acting on atoms (Ry/au):

     atom    1 type  3   force =    -0.00000000    0.00000000    0.00216282
     atom    2 type  2   force =     0.00000000   -0.00000000   -0.66010555
     atom    3 type  2   force =    -0.00000000    0.00000000    0.66366013
     atom    4 type  1   force =    -0.00000000    0.00000000    0.46977318
     atom    5 type  1   force =     0.00000000   -0.00000000   -0.47549058

     Total force =     1.150203     Total SCF correction =     0.000359


     entering subroutine stress ...

          total   stress  (Ry/bohr**3)                   (kbar)     P= 4224.39
   0.02983007   0.00000000  -0.00000000       4388.15      0.00     -0.00
   0.00000000   0.02983007  -0.00000000          0.00   4388.15     -0.00
   0.00000000   0.00000000   0.02649041          0.00      0.00   3896.87


     number of scf cycles    =   3
     number of bfgs steps    =   2

     enthalpy old            =    -136.8104098617 Ry
     enthalpy new            =    -137.1335108502 Ry

     CASE: enthalpy_new < enthalpy_old

     new trust radius        =       0.1688325095 bohr
     new conv_thr            =       0.0000010000 Ry

     new unit-cell volume =    155.68144 a.u.^3 (    23.06961 Ang^3 )

CELL_PARAMETERS (alat=  5.86000000)
   1.042176468  -0.000000000   0.000000000
  -0.521088234   0.902551296  -0.000000000
  -0.000000000   0.000000000   0.822490403

ATOMIC_POSITIONS (crystal)
Ca       0.000000000   0.000000000   0.000732910
O        0.333333333   0.666666667   0.368744322
O        0.666666667   0.333333333   0.636111470
H        0.333333333   0.666666667   0.749675357
H        0.666666667   0.333333333   0.254735941



     Writing output data file CaOH2_ambient.save
     NEW-OLD atomic charge density approx. for the potential
     NEW k-points:
        k(    1) = (   0.0799609   0.1384963   0.1013183), wk =   0.0370370
        k(    2) = (   0.0799609   0.1384963   0.3039549), wk =   0.0370370
        k(    3) = (   0.0799609   0.1384963   0.5065915), wk =   0.0370370
        k(    4) = (   0.0799609   0.3231580   0.1013183), wk =   0.0370370
        k(    5) = (   0.0799609   0.3231580   0.3039549), wk =   0.0370370
        k(    6) = (   0.0799609   0.3231580   0.5065915), wk =   0.0370370
        k(    7) = (   0.0799609   0.5078197   0.1013183), wk =   0.0370370
        k(    8) = (   0.0799609   0.5078197   0.3039549), wk =   0.0370370
        k(    9) = (   0.0799609   0.5078197   0.5065915), wk =   0.0370370
        k(   10) = (   0.0799609  -0.4154888   0.1013183), wk =   0.0370370
        k(   11) = (   0.0799609  -0.4154888   0.3039549), wk =   0.0370370
        k(   12) = (   0.0799609  -0.4154888   0.5065915), wk =   0.0370370
        k(   13) = (   0.0799609  -0.2308271   0.1013183), wk =   0.0370370
        k(   14) = (   0.0799609  -0.2308271   0.3039549), wk =   0.0370370
        k(   15) = (   0.0799609  -0.2308271   0.5065915), wk =   0.0370370
        k(   16) = (   0.0799609  -0.0461654   0.1013183), wk =   0.0185185
        k(   17) = (   0.0799609  -0.0461654   0.3039549), wk =   0.0185185
        k(   18) = (   0.0799609  -0.0461654   0.5065915), wk =   0.0185185
        k(   19) = (   0.2398826   0.4154888   0.1013183), wk =   0.0370370
        k(   20) = (   0.2398826   0.4154888   0.3039549), wk =   0.0370370
        k(   21) = (   0.2398826   0.4154888   0.5065915), wk =   0.0370370
        k(   22) = (   0.2398826   0.6001506   0.1013183), wk =   0.0370370
        k(   23) = (   0.2398826   0.6001506   0.3039549), wk =   0.0370370
        k(   24) = (   0.2398826   0.6001506   0.5065915), wk =   0.0370370
        k(   25) = (   0.2398826  -0.3231580   0.1013183), wk =   0.0370370
        k(   26) = (   0.2398826  -0.3231580   0.3039549), wk =   0.0370370
        k(   27) = (   0.2398826  -0.3231580   0.5065915), wk =   0.0370370
        k(   28) = (   0.2398826  -0.1384963   0.1013183), wk =   0.0185185
        k(   29) = (   0.2398826  -0.1384963   0.3039549), wk =   0.0185185
        k(   30) = (   0.2398826  -0.1384963   0.5065915), wk =   0.0185185
        k(   31) = (   0.3998043   0.6924814   0.1013183), wk =   0.0370370
        k(   32) = (   0.3998043   0.6924814   0.3039549), wk =   0.0370370
        k(   33) = (   0.3998043   0.6924814   0.5065915), wk =   0.0370370
        k(   34) = (   0.3998043  -0.2308271   0.1013183), wk =   0.0185185
        k(   35) = (   0.3998043  -0.2308271   0.3039549), wk =   0.0185185
        k(   36) = (   0.3998043  -0.2308271   0.5065915), wk =   0.0185185
        k(   37) = (  -0.0799609  -0.3231580   0.1013183), wk =   0.0370370
        k(   38) = (  -0.0799609  -0.3231580   0.3039549), wk =   0.0370370
        k(   39) = (  -0.0799609  -0.3231580   0.5065915), wk =   0.0370370
        k(   40) = (  -0.0799609  -0.5078197   0.1013183), wk =   0.0370370
        k(   41) = (  -0.0799609  -0.5078197   0.3039549), wk =   0.0370370
        k(   42) = (  -0.0799609  -0.5078197   0.5065915), wk =   0.0370370
        k(   43) = (  -0.0799609   0.4154888   0.1013183), wk =   0.0370370
        k(   44) = (  -0.0799609   0.4154888   0.3039549), wk =   0.0370370
        k(   45) = (  -0.0799609   0.4154888   0.5065915), wk =   0.0370370
        k(   46) = (  -0.0799609   0.2308271   0.1013183), wk =   0.0370370
        k(   47) = (  -0.0799609   0.2308271   0.3039549), wk =   0.0370370
        k(   48) = (  -0.0799609   0.2308271   0.5065915), wk =   0.0370370
        k(   49) = (  -0.0799609   0.0461654   0.1013183), wk =   0.0185185
        k(   50) = (  -0.0799609   0.0461654   0.3039549), wk =   0.0185185
        k(   51) = (  -0.0799609   0.0461654   0.5065915), wk =   0.0185185
        k(   52) = (  -0.2398826  -0.6001506   0.1013183), wk =   0.0370370
        k(   53) = (  -0.2398826  -0.6001506   0.3039549), wk =   0.0370370
        k(   54) = (  -0.2398826  -0.6001506   0.5065915), wk =   0.0370370
        k(   55) = (  -0.2398826   0.3231580   0.1013183), wk =   0.0370370
        k(   56) = (  -0.2398826   0.3231580   0.3039549), wk =   0.0370370
        k(   57) = (  -0.2398826   0.3231580   0.5065915), wk =   0.0370370
        k(   58) = (  -0.2398826   0.1384963   0.1013183), wk =   0.0185185
        k(   59) = (  -0.2398826   0.1384963   0.3039549), wk =   0.0185185
        k(   60) = (  -0.2398826   0.1384963   0.5065915), wk =   0.0185185
        k(   61) = (  -0.3998043   0.2308271   0.1013183), wk =   0.0185185
        k(   62) = (  -0.3998043   0.2308271   0.3039549), wk =   0.0185185
        k(   63) = (  -0.3998043   0.2308271   0.5065915), wk =   0.0185185
     extrapolated charge   27.10996, renormalised to   24.00000

     total cpu time spent up to now is      679.3 secs

     per-process dynamical memory:    18.8 Mb

     Self-consistent Calculation

     iteration #  1     ecut=   100.00 Ry     beta=0.30
     Davidson diagonalization with overlap
     ethr =  1.00E-06,  avg # of iterations =  7.8

     total cpu time spent up to now is      706.9 secs

     total energy              =    -138.81442914 Ry
     Harris-Foulkes estimate   =    -139.17003786 Ry
     estimated scf accuracy    <       0.63181346 Ry

     iteration #  2     ecut=   100.00 Ry     beta=0.30
     Davidson diagonalization with overlap
     ethr =  2.63E-03,  avg # of iterations =  3.0

     total cpu time spent up to now is      722.2 secs

     total energy              =    -139.23555514 Ry
     Harris-Foulkes estimate   =    -139.25664778 Ry
     estimated scf accuracy    <       0.10819094 Ry

     iteration #  3     ecut=   100.00 Ry     beta=0.30
     Davidson diagonalization with overlap
     ethr =  4.51E-04,  avg # of iterations =  1.0

     total cpu time spent up to now is      730.9 secs

     total energy              =    -139.19449619 Ry
     Harris-Foulkes estimate   =    -139.23708442 Ry
     estimated scf accuracy    <       0.06331578 Ry

     iteration #  4     ecut=   100.00 Ry     beta=0.30
     Davidson diagonalization with overlap
     ethr =  2.64E-04,  avg # of iterations =  2.0

     total cpu time spent up to now is      742.4 secs

     total energy              =    -139.21082101 Ry
     Harris-Foulkes estimate   =    -139.21223395 Ry
     estimated scf accuracy    <       0.00696722 Ry

     iteration #  5     ecut=   100.00 Ry     beta=0.30
     Davidson diagonalization with overlap
     ethr =  2.90E-05,  avg # of iterations =  1.1

     total cpu time spent up to now is      750.7 secs

     total energy              =    -139.20925477 Ry
     Harris-Foulkes estimate   =    -139.21101756 Ry
     estimated scf accuracy    <       0.00359374 Ry

     iteration #  6     ecut=   100.00 Ry     beta=0.30
     Davidson diagonalization with overlap
     ethr =  1.50E-05,  avg # of iterations =  2.0

[...]
        k(   60) = (  -0.2244394   0.1295801   0.5366918), wk =   0.0185185
        k(   61) = (  -0.3740656   0.2159669   0.1073384), wk =   0.0185185
        k(   62) = (  -0.3740656   0.2159669   0.3220151), wk =   0.0185185
        k(   63) = (  -0.3740656   0.2159669   0.5366918), wk =   0.0185185

     Dense  grid:    16267 G-vectors     FFT dimensions: (  40,  40,  25)

     Largest allocated arrays     est. size (Mb)     dimensions
        Kohn-Sham Wavefunctions         0.52 Mb     (   2847,   12)
        NL pseudopotentials             0.39 Mb     (   2847,    9)
        Each V/rho on FFT grid          0.61 Mb     (  40000)
        Each G-vector array             0.12 Mb     (  16267)
        G-vector shells                 0.01 Mb     (    791)
     Largest temporary arrays     est. size (Mb)     dimensions
        Auxiliary wavefunctions         2.09 Mb     (   2847,   48)
        Each subspace H/S matrix        0.04 Mb     (  48,  48)
        Each <psi_i|beta_j> matrix      0.00 Mb     (      9,   12)
        Arrays for rho mixing           9.77 Mb     (  40000,  16)

     Initial potential from superposition of free atoms

     starting charge   21.99998, renormalised to   24.00000
     Starting wfc are   14 randomized atomic wfcs

     Writing output data file CaOH2_ambient.save

     total cpu time spent up to now is     3067.7 secs

     per-process dynamical memory:    14.2 Mb

     Self-consistent Calculation

     iteration #  1     ecut=   100.00 Ry     beta=0.30
     Davidson diagonalization with overlap
     ethr =  1.00E-06,  avg # of iterations =  5.7

     total cpu time spent up to now is     3083.7 secs

     total energy              =    -139.62252284 Ry
     Harris-Foulkes estimate   =    -139.70691522 Ry
     estimated scf accuracy    <       0.47824301 Ry

     iteration #  2     ecut=   100.00 Ry     beta=0.30
     Davidson diagonalization with overlap
     ethr =  1.99E-03,  avg # of iterations =  1.0

     total cpu time spent up to now is     3088.9 secs

     total energy              =    -139.42856734 Ry
     Harris-Foulkes estimate   =    -139.62659127 Ry
     estimated scf accuracy    <       0.30521304 Ry

     iteration #  3     ecut=   100.00 Ry     beta=0.30
     Davidson diagonalization with overlap
     ethr =  1.27E-03,  avg # of iterations =  2.0

     total cpu time spent up to now is     3095.7 secs

     total energy              =    -139.47876418 Ry
     Harris-Foulkes estimate   =    -139.48612639 Ry
     estimated scf accuracy    <       0.01951595 Ry

     iteration #  4     ecut=   100.00 Ry     beta=0.30
     Davidson diagonalization with overlap
     ethr =  8.13E-05,  avg # of iterations =  2.0

     total cpu time spent up to now is     3102.2 secs

     total energy              =    -139.47997937 Ry
     Harris-Foulkes estimate   =    -139.48290763 Ry
     estimated scf accuracy    <       0.00793433 Ry

     iteration #  5     ecut=   100.00 Ry     beta=0.30
     Davidson diagonalization with overlap
     ethr =  3.31E-05,  avg # of iterations =  1.5

     total cpu time spent up to now is     3107.2 secs

     total energy              =    -139.47909672 Ry
     Harris-Foulkes estimate   =    -139.48046843 Ry
     estimated scf accuracy    <       0.00253472 Ry

     iteration #  6     ecut=   100.00 Ry     beta=0.30
     Davidson diagonalization with overlap
     ethr =  1.06E-05,  avg # of iterations =  2.0

     total cpu time spent up to now is     3113.6 secs

     total energy              =    -139.47980969 Ry
     Harris-Foulkes estimate   =    -139.47987311 Ry
     estimated scf accuracy    <       0.00011944 Ry

     iteration #  7     ecut=   100.00 Ry     beta=0.30
     Davidson diagonalization with overlap
     ethr =  4.98E-07,  avg # of iterations =  2.0

     total cpu time spent up to now is     3120.6 secs

     total energy              =    -139.47983981 Ry
     Harris-Foulkes estimate   =    -139.47983779 Ry
     estimated scf accuracy    <       0.00000595 Ry

     iteration #  8     ecut=   100.00 Ry     beta=0.30
     Davidson diagonalization with overlap
     ethr =  2.48E-08,  avg # of iterations =  2.0

     total cpu time spent up to now is     3127.1 secs

     total energy              =    -139.47984021 Ry
     Harris-Foulkes estimate   =    -139.47984073 Ry
     estimated scf accuracy    <       0.00000097 Ry

     iteration #  9     ecut=   100.00 Ry     beta=0.30
     Davidson diagonalization with overlap
     ethr =  4.04E-09,  avg # of iterations =  2.0

     total cpu time spent up to now is     3133.6 secs

     total energy              =    -139.47984048 Ry
     Harris-Foulkes estimate   =    -139.47984044 Ry
     estimated scf accuracy    <       0.00000005 Ry

     iteration # 10     ecut=   100.00 Ry     beta=0.30
     Davidson diagonalization with overlap
     ethr =  1.93E-10,  avg # of iterations =  2.7

     total cpu time spent up to now is     3140.2 secs

     total energy              =    -139.47984043 Ry
     Harris-Foulkes estimate   =    -139.47984049 Ry
     estimated scf accuracy    <       0.00000011 Ry

     iteration # 11     ecut=   100.00 Ry     beta=0.30
     Davidson diagonalization with overlap
     ethr =  1.93E-10,  avg # of iterations =  2.9

     total cpu time spent up to now is     3147.1 secs

     End of self-consistent calculation

          k = 0.0748 0.1296 0.1073 (  2847 PWs)   bands (ev):

   -24.3686  -7.4630  -5.6083  -4.8464  -4.2115  -2.7513   9.4022   9.8036
    10.6522  12.4225  14.4053  14.9653

          k = 0.0748 0.1296 0.3220 (  2839 PWs)   bands (ev):

   -23.9755  -7.3108  -5.7816  -5.3006  -3.9585  -2.1696   6.8924   9.5600
    10.1245  10.8755  13.7388  14.7840

          k = 0.0748 0.1296 0.5367 (  2834 PWs)   bands (ev):

   -23.5376  -8.3619  -5.3457  -4.9795  -3.3317  -1.5077   4.2970   6.8709
    11.2004  12.1277  12.7500  13.9776

          k = 0.0748 0.3024 0.1073 (  2838 PWs)   bands (ev):

   -24.3012  -8.2274  -5.9113  -4.5418  -3.7055  -2.8122   9.7265  10.5263
    11.7046  11.9401  13.7618  15.0435

          k = 0.0748 0.3024 0.3220 (  2828 PWs)   bands (ev):

   -23.9177  -7.5108  -6.1805  -5.4828  -3.4922  -2.2449   7.0469   8.9300
    10.2198  11.9754  14.0212  15.0411

          k = 0.0748 0.3024 0.5367 (  2838 PWs)   bands (ev):

   -23.4919  -8.0013  -6.0425  -5.1025  -3.4242  -1.5000   4.6055   6.1908
    10.8180  12.3315  14.0810  14.5123

          k = 0.0748 0.4751 0.1073 (  2829 PWs)   bands (ev):

   -24.2510  -8.6046  -6.1565  -4.4207  -3.9857  -2.1507   9.9128  10.9209
    11.5889  12.0240  14.1186  14.9756

          k = 0.0748 0.4751 0.3220 (  2828 PWs)   bands (ev):

   -23.8748  -7.7445  -6.1599  -5.6383  -3.5580  -2.1262   7.6002   8.3964
    10.4935  12.1585  14.3662  14.9120

          k = 0.0748 0.4751 0.5367 (  2841 PWs)   bands (ev):

   -23.4581  -7.6808  -6.4567  -5.2029  -3.4731  -1.8153   5.1108   5.8181
    10.7477  12.9191  14.3034  14.5107

          k = 0.0748-0.3887 0.1073 (  2832 PWs)   bands (ev):

   -24.2695  -8.4896  -6.0529  -4.2832  -3.9974  -2.4968  10.0670  10.9755
    11.7048  11.9235  13.7326  14.7086

          k = 0.0748-0.3887 0.3220 (  2825 PWs)   bands (ev):

   -23.8906  -7.7247  -6.0309  -5.6148  -3.2502  -2.5905   7.6931   8.5412
    10.7528  12.1536  13.8535  14.3571

          k = 0.0748-0.3887 0.5367 (  2840 PWs)   bands (ev):

   -23.4705  -7.8322  -6.2764  -5.1662  -3.2787  -1.9557   5.2151   5.7770
    11.0627  12.6181  14.0198  14.2286

          k = 0.0748-0.2160 0.1073 (  2844 PWs)   bands (ev):

   -24.3375  -7.8879  -5.7380  -4.4876  -3.9595  -3.0001   9.6701  10.4051
    10.9091  12.2829  14.0026  14.7883

          k = 0.0748-0.2160 0.3220 (  2834 PWs)   bands (ev):

   -23.9488  -7.4356  -5.9531  -5.3933  -3.4834  -2.5020   7.0719   9.2799
    10.4555  11.2993  13.6192  14.6798

          k = 0.0748-0.2160 0.5367 (  2837 PWs)   bands (ev):

   -23.5164  -8.2116  -5.6889  -5.0367  -3.2487  -1.6300   4.5116   6.5058
    11.4181  11.8425  13.1475  14.3218

          k = 0.0748-0.0432 0.1073 (  2841 PWs)   bands (ev):

   -24.3864  -7.1041  -5.5464  -5.2340  -4.3048  -2.5592   9.2277   9.4432
    10.5208  12.5093  14.6681  15.0528

          k = 0.0748-0.0432 0.3220 (  2841 PWs)   bands (ev):

   -23.9908  -7.2601  -5.5377  -5.2564  -4.3317  -1.9937   6.8373   9.7610
     9.9642  10.5247  13.9327  14.6605

          k = 0.0748-0.0432 0.5367 (  2837 PWs)   bands (ev):

   -23.5497  -8.4449  -5.1002  -4.9501  -3.4037  -1.4895   4.2250   7.1054
    11.2202  12.0514  12.7266  13.5925

          k = 0.2244 0.3887 0.1073 (  2839 PWs)   bands (ev):

   -24.2512  -8.3173  -6.9416  -4.2674  -3.0566  -2.6690   9.3018  11.1183
    11.5869  12.7213  13.4337  15.3961

          k = 0.2244 0.3887 0.3220 (  2828 PWs)   bands (ev):

   -23.8750  -7.5226  -6.3365  -5.9946  -2.8788  -2.4656   7.6244   8.4048
    10.2770  12.6426  13.8457  14.9659

          k = 0.2244 0.3887 0.5367 (  2835 PWs)   bands (ev):

   -23.4581  -7.7016  -6.2322  -5.5464  -3.1328  -2.0820   5.2935   5.7346
    11.3633  12.4942  14.0516  14.2795

          k = 0.2244 0.5615 0.1073 (  2831 PWs)   bands (ev):

   -24.2377  -8.2218  -7.3162  -4.2426  -2.9819  -2.4639   9.1037  11.1859
    11.4668  12.9752  13.5044  15.5985

          k = 0.2244 0.5615 0.3220 (  2825 PWs)   bands (ev):

   -23.8634  -7.4182  -6.6204  -6.0040  -2.7666  -2.4411   7.9157   8.1608
    10.1140  12.9710  13.6583  15.1074

          k = 0.2244 0.5615 0.5367 (  2827 PWs)   bands (ev):

   -23.4490  -7.6088  -6.2245  -5.7344  -2.9654  -2.3334   5.5498   5.5829
    11.4068  12.9183  13.7684  14.1438

          k = 0.2244-0.3024 0.1073 (  2835 PWs)   bands (ev):

   -24.2745  -8.3325  -6.4191  -4.3475  -3.3751  -2.7778   9.5443  10.9475
    11.7068  12.2248  13.5460  15.1682

          k = 0.2244-0.3024 0.3220 (  2831 PWs)   bands (ev):

   -23.8949  -7.5596  -6.1834  -5.7875  -3.1888  -2.3566   7.2998   8.6768
    10.3499  12.2342  14.0648  14.8999

          k = 0.2244-0.3024 0.5367 (  2834 PWs)   bands (ev):

   -23.4738  -7.8465  -6.1778  -5.3015  -3.3124  -1.7564   4.9297   5.9529
    11.1031  12.3082  14.1643  14.4770

          k = 0.2244-0.1296 0.1073 (  2833 PWs)   bands (ev):

   -24.3242  -8.0391  -5.6572  -4.7127  -3.8312  -2.8723   9.7250  10.1831
    11.4213  12.0539  13.9045  15.0576

          k = 0.2244-0.1296 0.3220 (  2840 PWs)   bands (ev):

   -23.9375  -7.4282  -6.1445  -5.3465  -3.6418  -2.2066   6.9183   9.1356
    10.0747  11.7837  13.8583  15.1171

          k = 0.2244-0.1296 0.5367 (  2840 PWs)   bands (ev):

   -23.5075  -8.1296  -5.8555  -5.0183  -3.4335  -1.4006   4.4240   6.3990
    10.7538  12.3313  13.8320  14.3771

          k = 0.3741 0.6479 0.1073 (  2831 PWs)   bands (ev):

   -24.2426  -8.4612  -6.7946  -4.2613  -3.5117  -2.2465   9.4287  11.1219
    11.5466  12.4825  13.7919  15.3397

          k = 0.3741 0.6479 0.3220 (  2826 PWs)   bands (ev):

   -23.8676  -7.6239  -6.2740  -5.9469  -3.1441  -2.2673   7.8340   8.2173
    10.3300  12.5487  13.9702  15.0143

          k = 0.3741 0.6479 0.5367 (  2835 PWs)   bands (ev):

   -23.4523  -7.6355  -6.3730  -5.4660  -3.2216  -2.0832   5.3543   5.6980
    11.1029  12.9346  14.0233  14.2798

          k = 0.3741-0.2160 0.1073 (  2828 PWs)   bands (ev):

   -24.2609  -8.5998  -5.7660  -4.7061  -4.0481  -2.1965  10.3827  10.4016
    11.5935  11.9396  14.3006  14.7580

          k = 0.3741-0.2160 0.3220 (  2825 PWs)   bands (ev):

   -23.8833  -7.7394  -6.1791  -5.4382  -3.7372  -2.0652   7.3898   8.5428
    10.4520  12.0387  14.5612  14.9109

          k = 0.3741-0.2160 0.5367 (  2845 PWs)   bands (ev):

   -23.4647  -7.7403  -6.4325  -5.0876  -3.5730  -1.6477   4.9245   5.9111
    10.5985  12.8202  14.4290  14.6481

          k =-0.0748-0.3024 0.1073 (  2838 PWs)   bands (ev):

   -24.3012  -8.2442  -5.8999  -4.3447  -3.8320  -2.9145   9.9243  10.8382
    11.3678  12.1076  13.6588  14.6854

          k =-0.0748-0.3024 0.3220 (  2828 PWs)   bands (ev):

   -23.9177  -7.5964  -6.0122  -5.5101  -3.0505  -2.8566   7.3616   8.9281
    10.7171  11.7759  13.6818  14.4138

          k =-0.0748-0.3024 0.5367 (  2838 PWs)   bands (ev):

   -23.4919  -8.0215  -6.0176  -5.1048  -3.2226  -1.8190   4.8561   6.1128
    11.3422  12.0444  13.6121  14.3935

          k =-0.0748-0.4751 0.1073 (  2829 PWs)   bands (ev):

   -24.2510  -8.6105  -6.1502  -4.3233  -4.0631  -2.1889  10.0250  10.9771
    11.7139  11.8996  14.0116  14.8573

          k =-0.0748-0.4751 0.3220 (  2828 PWs)   bands (ev):

   -23.8748  -7.7772  -6.0813  -5.6599  -3.4704  -2.2892   7.8780   8.2608
    10.6393  12.2212  14.1026  14.6470

          k =-0.0748-0.4751 0.5367 (  2841 PWs)   bands (ev):

   -23.4581  -7.6978  -6.4354  -5.2033  -3.3885  -1.9492   5.3087   5.6900
    10.8567  13.0215  14.0849  14.3477

          k =-0.0748 0.3887 0.1073 (  2832 PWs)   bands (ev):

   -24.2695  -8.4748  -6.0668  -4.4903  -3.8469  -2.4006   9.8338  10.7615
    11.6073  12.0743  13.9484  15.0156

          k =-0.0748 0.3887 0.3220 (  2825 PWs)   bands (ev):

   -23.8906  -7.6434  -6.2098  -5.5740  -3.5367  -2.1275   7.2710   8.6342
    10.3519  12.1112  14.3609  15.0215

          k =-0.0748 0.3887 0.5367 (  2840 PWs)   bands (ev):

   -23.4705  -7.8018  -6.3150  -5.1649  -3.4819  -1.6338   4.8631   5.9594
    10.7372  12.6167  14.3772  14.5857

          k =-0.0748 0.2160 0.1073 (  2844 PWs)   bands (ev):

   -24.3375  -7.8770  -5.7416  -4.6164  -3.8598  -2.9608   9.5603  10.2428
    11.1369  12.1945  13.9499  15.0321

          k =-0.0748 0.2160 0.3220 (  2834 PWs)   bands (ev):

   -23.9488  -7.3914  -6.0363  -5.3831  -3.6057  -2.2957   6.9372   9.2663
    10.1269  11.5515  13.7208  14.9597

          k =-0.0748 0.2160 0.5367 (  2837 PWs)   bands (ev):

   -23.5164  -8.2047  -5.6959  -5.0345  -3.3508  -1.4713   4.4085   6.5212
    10.9789  12.1607  13.4557  14.2911

          k =-0.0748 0.0432 0.1073 (  2841 PWs)   bands (ev):

   -24.3864  -7.1086  -5.5484  -5.2108  -4.3195  -2.5642   9.3220   9.3731
    10.5020  12.5197  14.8116  14.8834

          k =-0.0748 0.0432 0.3220 (  2841 PWs)   bands (ev):

   -23.9908  -7.2671  -5.5187  -5.2608  -4.3267  -2.0155   6.8584   9.7316
    10.2234  10.3012  13.9384  14.6051

          k =-0.0748 0.0432 0.5367 (  2837 PWs)   bands (ev):

   -23.5497  -8.4456  -5.0992  -4.9526  -3.3846  -1.5164   4.2398   7.1055
    11.3700  11.9245  12.6279  13.6453

          k =-0.2244-0.5615 0.1073 (  2831 PWs)   bands (ev):

   -24.2377  -8.2195  -7.3190  -4.2458  -2.9910  -2.4483   9.0894  11.2131
    11.4272  12.9534  13.5430  15.6179

          k =-0.2244-0.5615 0.3220 (  2825 PWs)   bands (ev):

   -23.8634  -7.4047  -6.6440  -5.9968  -2.8235  -2.3732   7.8352   8.2183
    10.1022  12.9052  13.7460  15.1479

          k =-0.2244-0.5615 0.5367 (  2827 PWs)   bands (ev):

   -23.4490  -7.6058  -6.2301  -5.7328  -2.9955  -2.2958   5.4504   5.6722
    11.3778  12.8955  13.8619  14.1268

          k =-0.2244 0.3024 0.1073 (  2835 PWs)   bands (ev):

   -24.2745  -8.3405  -6.4091  -4.3017  -3.3636  -2.8550   9.6365  10.9888
    11.8460  12.1444  13.4268  15.0383

          k =-0.2244 0.3024 0.3220 (  2831 PWs)   bands (ev):

   -23.8949  -7.6023  -6.0417  -5.8638  -2.8976  -2.7230   7.4723   8.6477
    10.5074  12.2774  13.8353  14.6143

          k =-0.2244 0.3024 0.5367 (  2834 PWs)   bands (ev):

   -23.4738  -7.8587  -6.1611  -5.3020  -3.2151  -1.9063   5.0711   5.8852
    11.3455  12.1767  14.0160  14.3501

          k =-0.2244 0.1296 0.1073 (  2833 PWs)   bands (ev):

   -24.3242  -8.0600  -5.6609  -4.4014  -4.0658  -2.9644   9.9601  10.6147
    10.8694  12.2636  13.9893  14.5167

          k =-0.2244 0.1296 0.3220 (  2840 PWs)   bands (ev):

   -23.9375  -7.5244  -5.9755  -5.3549  -3.3141  -2.7241   7.2343   9.1612
    10.8326  11.2486  13.5753  14.4662

          k =-0.2244 0.1296 0.5367 (  2840 PWs)   bands (ev):

   -23.5075  -8.1473  -5.8360  -5.0231  -3.2065  -1.7562   4.6708   6.3489
    11.4689  11.9079  13.1673  14.3828

          k =-0.3741 0.2160 0.1073 (  2828 PWs)   bands (ev):

   -24.2609  -8.6118  -5.7678  -4.4738  -4.2272  -2.2737  10.5375  10.7967
    11.4554  11.8778  14.1459  14.4438

          k =-0.3741 0.2160 0.3220 (  2825 PWs)   bands (ev):

   -23.8832  -7.8056  -6.0522  -5.4422  -3.5636  -2.4057   7.8444   8.3932
    10.8395  12.0611  14.1248  14.2538

          k =-0.3741 0.2160 0.5367 (  2845 PWs)   bands (ev):

   -23.4647  -7.7725  -6.3930  -5.0898  -3.3979  -1.9298   5.2928   5.6984
    10.8288  12.9779  14.1413  14.1787

!    total energy              =    -139.47984045 Ry
     Harris-Foulkes estimate   =    -139.47984045 Ry
     estimated scf accuracy    <          3.6E-10 Ry

     The total energy is the sum of the following terms:

     one-electron contribution =      -0.96583759 Ry
     hartree contribution      =      19.43601635 Ry
     xc contribution           =     -26.99875602 Ry
     ewald contribution        =    -130.95126320 Ry

     convergence has been achieved in  11 iterations

     Forces acting on atoms (Ry/au):

     atom    1 type  3   force =     0.00000000   -0.00000000    0.00011675
     atom    2 type  2   force =    -0.00000000    0.00000000   -0.00007439
     atom    3 type  2   force =    -0.00000000    0.00000000   -0.00020570
     atom    4 type  1   force =     0.00000000    0.00000000    0.00023263
     atom    5 type  1   force =    -0.00000000    0.00000000   -0.00006930

     Total force =     0.000347     Total SCF correction =     0.000040
     SCF correction compared to forces is large: reduce conv_thr to get better values


     entering subroutine stress ...

          total   stress  (Ry/bohr**3)                   (kbar)     P= 1648.28
   0.01132642  -0.00000000  -0.00000000       1666.17     -0.00     -0.00
  -0.00000000   0.01132642  -0.00000000         -0.00   1666.17     -0.00
  -0.00000000  -0.00000000   0.01096145         -0.00     -0.00   1612.48


     Writing output data file CaOH2_ambient.save

     init_run     :     40.40s CPU     41.28s WALL (       2 calls)
     electrons    :   1636.78s CPU   1671.32s WALL (      19 calls)
     update_pot   :    655.18s CPU    658.59s WALL (      17 calls)
     forces       :    239.96s CPU    241.26s WALL (      19 calls)
     stress       :    532.90s CPU    535.64s WALL (      19 calls)

     Called by init_run:
     wfcinit      :      8.44s CPU      9.22s WALL (       2 calls)
     potinit      :     13.13s CPU     13.15s WALL (       2 calls)

     Called by electrons:
     c_bands      :   1405.87s CPU   1432.75s WALL (     155 calls)
     sum_band     :    205.25s CPU    211.13s WALL (     155 calls)
     v_of_rho     :     15.00s CPU     15.28s WALL (     172 calls)
     mix_rho      :     11.53s CPU     12.14s WALL (     155 calls)

     Called by c_bands:
     init_us_2    :     57.43s CPU     62.75s WALL (   22050 calls)
     cegterg      :   1373.92s CPU   1385.77s WALL (    9765 calls)

     Called by *egterg:
     h_psi        :    994.50s CPU   1001.34s WALL (   33186 calls)
     g_psi        :     12.57s CPU     12.77s WALL (   23295 calls)
     cdiaghg      :     16.60s CPU     16.84s WALL (   31863 calls)

     Called by h_psi:
     add_vuspsi   :     33.74s CPU     33.99s WALL (   33186 calls)

     General routines
     calbec       :     37.50s CPU     37.81s WALL (   35580 calls)
     fft          :      3.79s CPU      3.83s WALL (    2046 calls)
     ffts         :      4.64s CPU      4.72s WALL (    2570 calls)
     fftw         :    951.09s CPU    956.91s WALL (  775052 calls)
     davcio       :      7.65s CPU     21.96s WALL (   31815 calls)


     PWSCF        : 51m48.47s CPU    52m31.98s WALL


   This run was terminated on:   2:32:32  22Apr2014            

=------------------------------------------------------------------------------=
   JOB DONE.
=------------------------------------------------------------------------------=
