
     Program PWSCF v.5.0.2 (svn rev. 9392) starts on 22Apr2014 at  4:22:19 

     This program is part of the open-source Quantum ESPRESSO suite
     for quantum simulation of materials; please cite
         "P. Giannozzi et al., J. Phys.:Condens. Matter 21 395502 (2009);
          URL http://www.quantum-espresso.org", 
     in publications or presentations arising from this work. More details at
     http://www.quantum-espresso.org/quote.php

     Serial version

     Current dimensions of program PWSCF are:
     Max number of different atomic species (ntypx) = 10
     Max number of k-points (npk) =  40000
     Max angular momentum in pseudopotentials (lmaxx) =  3
     Waiting for input...
     Reading input from standard input

     G-vector sticks info
     --------------------
     sticks:   dense  smooth     PW     G-vecs:    dense   smooth      PW
     Sum         757     757    283                22473    22473    5157



     bravais-lattice index     =            4
     lattice parameter (alat)  =       5.8600  a.u.
     unit-cell volume          =     232.1281 (a.u.)^3
     number of atoms/cell      =            5
     number of atomic types    =            3
     number of electrons       =        24.00
     number of Kohn-Sham states=           12
     kinetic-energy cutoff     =     100.0000  Ry
     charge density cutoff     =     320.0000  Ry
     convergence threshold     =      1.0E-06
     mixing beta               =       0.3000
     number of iterations used =           16  local-TF  mixing
     Exchange-correlation      = PBE ( 1 4 3 4 0)
     EXX-fraction              =        0.00
     nstep                     =           50


     celldm(1)=   5.860000  celldm(2)=   0.000000  celldm(3)=   1.332000
     celldm(4)=   0.000000  celldm(5)=   0.000000  celldm(6)=   0.000000

     crystal axes: (cart. coord. in units of alat)
               a(1) = (   1.000000   0.000000   0.000000 )  
               a(2) = (  -0.500000   0.866025   0.000000 )  
               a(3) = (   0.000000   0.000000   1.332000 )  

     reciprocal axes: (cart. coord. in units 2 pi/alat)
               b(1) = (  1.000000  0.577350 -0.000000 )  
               b(2) = (  0.000000  1.154701  0.000000 )  
               b(3) = (  0.000000 -0.000000  0.750751 )  


     PseudoPot. # 1 for H  read from file:
     /home/ilia/espresso/pseudo/H.pbe-sp-mt.ncpp
     MD5 check sum: 7a641936b52ccecd26bd1ad87cca5aed
     Pseudo is Norm-conserving, Zval =  1.0
     Generated by old ld1 code (numerical format)
     Using radial grid of 1076 points,  0 beta functions with: 

     PseudoPot. # 2 for O  read from file:
     /home/ilia/espresso/pseudo/O.pbe-sp-mt.ncpp
     MD5 check sum: 8a3d23d410d2f3ebfd0a39faacc72cbb
     Pseudo is Norm-conserving, Zval =  6.0
     Generated by old ld1 code (numerical format)
     Using radial grid of 1130 points,  1 beta functions with: 
                l(1) =   1

     PseudoPot. # 3 for Ca read from file:
     /home/ilia/espresso/pseudo/Ca.pbe-sp-mt_ion2.ncpp
     MD5 check sum: 4bcd670d05521f7b178fdf0a334578ab
     Pseudo is Norm-conserving, Zval = 10.0
     Generated by old ld1 code (numerical format)
     Using radial grid of 1153 points,  1 beta functions with: 
                l(1) =   1

     atomic species   valence    mass     pseudopotential
        H              1.00     1.00700     H ( 1.00)
        O              6.00    16.00000     O ( 1.00)
        Ca            10.00    40.07800     Ca( 1.00)

      6 Sym. Ops. (no inversion) found



   Cartesian axes

     site n.     atom                  positions (alat units)
         1           Ca  tau(   1) = (   0.0000000   0.0000000   0.0000000  )
         2           O   tau(   2) = (   0.0000000   0.5773503   0.6287040  )
         3           O   tau(   3) = (   0.5000000   0.2886751   0.7166160  )
         4           H   tau(   4) = (   0.0000000   0.5773503   0.9430560  )
         5           H   tau(   5) = (   0.5000000   0.2886751   0.3889440  )

     number of k points=    63
                       cart. coord. in units 2pi/alat
        k(    1) = (   0.0833333   0.1443376   0.0625626), wk =   0.0370370
        k(    2) = (   0.0833333   0.1443376   0.1876877), wk =   0.0370370
        k(    3) = (   0.0833333   0.1443376   0.3128128), wk =   0.0370370
        k(    4) = (   0.0833333   0.3367877   0.0625626), wk =   0.0370370
        k(    5) = (   0.0833333   0.3367877   0.1876877), wk =   0.0370370
        k(    6) = (   0.0833333   0.3367877   0.3128128), wk =   0.0370370
        k(    7) = (   0.0833333   0.5292377   0.0625626), wk =   0.0370370
        k(    8) = (   0.0833333   0.5292377   0.1876877), wk =   0.0370370
        k(    9) = (   0.0833333   0.5292377   0.3128128), wk =   0.0370370
        k(   10) = (   0.0833333  -0.4330127   0.0625626), wk =   0.0370370
        k(   11) = (   0.0833333  -0.4330127   0.1876877), wk =   0.0370370
        k(   12) = (   0.0833333  -0.4330127   0.3128128), wk =   0.0370370
        k(   13) = (   0.0833333  -0.2405626   0.0625626), wk =   0.0370370
        k(   14) = (   0.0833333  -0.2405626   0.1876877), wk =   0.0370370
        k(   15) = (   0.0833333  -0.2405626   0.3128128), wk =   0.0370370
        k(   16) = (   0.0833333  -0.0481125   0.0625626), wk =   0.0185185
        k(   17) = (   0.0833333  -0.0481125   0.1876877), wk =   0.0185185
        k(   18) = (   0.0833333  -0.0481125   0.3128128), wk =   0.0185185
        k(   19) = (   0.2500000   0.4330127   0.0625626), wk =   0.0370370
        k(   20) = (   0.2500000   0.4330127   0.1876877), wk =   0.0370370
        k(   21) = (   0.2500000   0.4330127   0.3128128), wk =   0.0370370
        k(   22) = (   0.2500000   0.6254628   0.0625626), wk =   0.0370370
        k(   23) = (   0.2500000   0.6254628   0.1876877), wk =   0.0370370
        k(   24) = (   0.2500000   0.6254628   0.3128128), wk =   0.0370370
        k(   25) = (   0.2500000  -0.3367877   0.0625626), wk =   0.0370370
        k(   26) = (   0.2500000  -0.3367877   0.1876877), wk =   0.0370370
        k(   27) = (   0.2500000  -0.3367877   0.3128128), wk =   0.0370370
        k(   28) = (   0.2500000  -0.1443376   0.0625626), wk =   0.0185185
        k(   29) = (   0.2500000  -0.1443376   0.1876877), wk =   0.0185185
        k(   30) = (   0.2500000  -0.1443376   0.3128128), wk =   0.0185185
        k(   31) = (   0.4166667   0.7216878   0.0625626), wk =   0.0370370
        k(   32) = (   0.4166667   0.7216878   0.1876877), wk =   0.0370370
        k(   33) = (   0.4166667   0.7216878   0.3128128), wk =   0.0370370
        k(   34) = (   0.4166667  -0.2405626   0.0625626), wk =   0.0185185
        k(   35) = (   0.4166667  -0.2405626   0.1876877), wk =   0.0185185
        k(   36) = (   0.4166667  -0.2405626   0.3128128), wk =   0.0185185
        k(   37) = (  -0.0833333  -0.3367877   0.0625626), wk =   0.0370370
        k(   38) = (  -0.0833333  -0.3367877   0.1876877), wk =   0.0370370
        k(   39) = (  -0.0833333  -0.3367877   0.3128128), wk =   0.0370370
        k(   40) = (  -0.0833333  -0.5292377   0.0625626), wk =   0.0370370
        k(   41) = (  -0.0833333  -0.5292377   0.1876877), wk =   0.0370370
        k(   42) = (  -0.0833333  -0.5292377   0.3128128), wk =   0.0370370
        k(   43) = (  -0.0833333   0.4330127   0.0625626), wk =   0.0370370
        k(   44) = (  -0.0833333   0.4330127   0.1876877), wk =   0.0370370
        k(   45) = (  -0.0833333   0.4330127   0.3128128), wk =   0.0370370
        k(   46) = (  -0.0833333   0.2405626   0.0625626), wk =   0.0370370
        k(   47) = (  -0.0833333   0.2405626   0.1876877), wk =   0.0370370
        k(   48) = (  -0.0833333   0.2405626   0.3128128), wk =   0.0370370
        k(   49) = (  -0.0833333   0.0481125   0.0625626), wk =   0.0185185
        k(   50) = (  -0.0833333   0.0481125   0.1876877), wk =   0.0185185
        k(   51) = (  -0.0833333   0.0481125   0.3128128), wk =   0.0185185
        k(   52) = (  -0.2500000  -0.6254628   0.0625626), wk =   0.0370370
        k(   53) = (  -0.2500000  -0.6254628   0.1876877), wk =   0.0370370
        k(   54) = (  -0.2500000  -0.6254628   0.3128128), wk =   0.0370370
        k(   55) = (  -0.2500000   0.3367877   0.0625626), wk =   0.0370370
        k(   56) = (  -0.2500000   0.3367877   0.1876877), wk =   0.0370370
        k(   57) = (  -0.2500000   0.3367877   0.3128128), wk =   0.0370370
        k(   58) = (  -0.2500000   0.1443376   0.0625626), wk =   0.0185185
        k(   59) = (  -0.2500000   0.1443376   0.1876877), wk =   0.0185185
        k(   60) = (  -0.2500000   0.1443376   0.3128128), wk =   0.0185185
        k(   61) = (  -0.4166667   0.2405626   0.0625626), wk =   0.0185185
        k(   62) = (  -0.4166667   0.2405626   0.1876877), wk =   0.0185185
        k(   63) = (  -0.4166667   0.2405626   0.3128128), wk =   0.0185185

     Dense  grid:    22473 G-vectors     FFT dimensions: (  36,  36,  45)

     Largest allocated arrays     est. size (Mb)     dimensions
        Kohn-Sham Wavefunctions         0.72 Mb     (   3953,   12)
        NL pseudopotentials             0.54 Mb     (   3953,    9)
        Each V/rho on FFT grid          0.89 Mb     (  58320)
        Each G-vector array             0.17 Mb     (  22473)
        G-vector shells                 0.17 Mb     (  22473)
     Largest temporary arrays     est. size (Mb)     dimensions
        Auxiliary wavefunctions         2.90 Mb     (   3953,   48)
        Each subspace H/S matrix        0.04 Mb     (  48,  48)
        Each <psi_i|beta_j> matrix      0.00 Mb     (      9,   12)
        Arrays for rho mixing          14.24 Mb     (  58320,  16)

     Initial potential from superposition of free atoms

     starting charge   21.99998, renormalised to   24.00000
     Starting wfc are   14 randomized atomic wfcs

     total cpu time spent up to now is       34.7 secs

     per-process dynamical memory:    13.9 Mb

     Self-consistent Calculation

     iteration #  1     ecut=   100.00 Ry     beta=0.30
     Davidson diagonalization with overlap
     ethr =  1.00E-02,  avg # of iterations =  2.3

     total cpu time spent up to now is       45.9 secs

     total energy              =    -138.94986530 Ry
     Harris-Foulkes estimate   =    -139.04185099 Ry
     estimated scf accuracy    <       0.52656765 Ry

     iteration #  2     ecut=   100.00 Ry     beta=0.30
     Davidson diagonalization with overlap
     ethr =  2.19E-03,  avg # of iterations =  3.4

     total cpu time spent up to now is       54.7 secs

     total energy              =    -139.16707973 Ry
     Harris-Foulkes estimate   =    -139.21614704 Ry
     estimated scf accuracy    <       0.52852567 Ry

     iteration #  3     ecut=   100.00 Ry     beta=0.30
     Davidson diagonalization with overlap
     ethr =  2.19E-03,  avg # of iterations =  1.4

     total cpu time spent up to now is       63.5 secs

     total energy              =    -138.93257457 Ry
     Harris-Foulkes estimate   =    -139.19847496 Ry
     estimated scf accuracy    <       0.48983518 Ry

     iteration #  4     ecut=   100.00 Ry     beta=0.30
     Davidson diagonalization with overlap
     ethr =  2.04E-03,  avg # of iterations =  2.5

     total cpu time spent up to now is       74.8 secs

     total energy              =    -139.03303640 Ry
     Harris-Foulkes estimate   =    -139.05289624 Ry
     estimated scf accuracy    <       0.04652802 Ry

     iteration #  5     ecut=   100.00 Ry     beta=0.30
     Davidson diagonalization with overlap
     ethr =  1.94E-04,  avg # of iterations =  2.6

     total cpu time spent up to now is       84.7 secs

     total energy              =    -139.04848140 Ry
     Harris-Foulkes estimate   =    -139.05377528 Ry
     estimated scf accuracy    <       0.01521435 Ry

     iteration #  6     ecut=   100.00 Ry     beta=0.30
     Davidson diagonalization with overlap
     ethr =  6.34E-05,  avg # of iterations =  2.9

     total cpu time spent up to now is       94.3 secs

     total energy              =    -139.05410698 Ry
     Harris-Foulkes estimate   =    -139.05502653 Ry
     estimated scf accuracy    <       0.00495159 Ry

     iteration #  7     ecut=   100.00 Ry     beta=0.30
     Davidson diagonalization with overlap
     ethr =  2.06E-05,  avg # of iterations =  2.0

     total cpu time spent up to now is      102.4 secs

     total energy              =    -139.05276980 Ry
     Harris-Foulkes estimate   =    -139.05440544 Ry
     estimated scf accuracy    <       0.00330165 Ry

     iteration #  8     ecut=   100.00 Ry     beta=0.30
     Davidson diagonalization with overlap
     ethr =  1.38E-05,  avg # of iterations =  3.5

     total cpu time spent up to now is      113.0 secs

     total energy              =    -139.05378810 Ry
     Harris-Foulkes estimate   =    -139.05482205 Ry
     estimated scf accuracy    <       0.00301019 Ry

     iteration #  9     ecut=   100.00 Ry     beta=0.30
     Davidson diagonalization with overlap
     ethr =  1.25E-05,  avg # of iterations =  2.8

     total cpu time spent up to now is      121.8 secs

     total energy              =    -139.05432975 Ry
     Harris-Foulkes estimate   =    -139.05434863 Ry
     estimated scf accuracy    <       0.00006492 Ry

     iteration # 10     ecut=   100.00 Ry     beta=0.30
     Davidson diagonalization with overlap
     ethr =  2.71E-07,  avg # of iterations =  5.3

     total cpu time spent up to now is      133.0 secs

     total energy              =    -139.05436204 Ry
     Harris-Foulkes estimate   =    -139.05436828 Ry
     estimated scf accuracy    <       0.00001823 Ry

     iteration # 11     ecut=   100.00 Ry     beta=0.30
     Davidson diagonalization with overlap
     ethr =  7.60E-08,  avg # of iterations =  2.8

     total cpu time spent up to now is      142.4 secs

     End of self-consistent calculation

          k = 0.0833 0.1443 0.0626 (  3927 PWs)   bands (ev):

   -29.3065 -11.9448 -10.7842 -10.3875 -10.3814  -4.8109   1.6824   5.3356
     6.0939   6.7102   9.7753  11.2718

          k = 0.0833 0.1443 0.1877 (  3931 PWs)   bands (ev):

   -29.3037 -12.2622 -10.5966 -10.3789 -10.1716  -4.8068   1.2689   5.3442
     6.0915   6.5933  10.9252  11.2793

          k = 0.0833 0.1443 0.3128 (  3917 PWs)   bands (ev):

   -29.3009 -12.4859 -10.5501 -10.3762  -9.9047  -4.8034   0.8988   5.3499
     6.0895   6.4778  11.2853  11.8914

          k = 0.0833 0.3368 0.0626 (  3923 PWs)   bands (ev):

   -29.2216 -11.7017 -10.7547 -10.5165 -10.1887  -6.2830   2.0591   4.5550
     5.7297   6.7941  11.2887  11.3788

          k = 0.0833 0.3368 0.1877 (  3919 PWs)   bands (ev):

   -29.2195 -11.7296 -10.9121 -10.5085  -9.9998  -6.2883   1.9193   4.5578
     5.5550   6.7891  11.4212  12.3060

          k = 0.0833 0.3368 0.3128 (  3914 PWs)   bands (ev):

   -29.2175 -11.7531 -11.0089 -10.5019  -9.8880  -6.2723   1.7832   4.5554
     5.3814   6.7971  11.4938  13.1490

          k = 0.0833 0.5292 0.0626 (  3919 PWs)   bands (ev):

   -29.1582 -11.7369 -10.6366 -10.6126  -9.4840  -7.7022   2.5785   4.0813
     4.7383   6.9209  11.9974  12.6306

          k = 0.0833 0.5292 0.1877 (  3926 PWs)   bands (ev):

   -29.1568 -11.5974 -10.7154 -10.6023  -9.6665  -7.6513   2.7145   4.0716
     4.4801   6.9920  11.9894  13.5303

          k = 0.0833 0.5292 0.3128 (  3917 PWs)   bands (ev):

   -29.1553 -11.4073 -10.8078 -10.5939  -9.8945  -7.5848   2.8400   4.0788
     4.2287   7.0793  11.9568  13.9193

          k = 0.0833-0.4330 0.0626 (  3917 PWs)   bands (ev):

   -29.1815 -11.6915 -10.6918 -10.5768  -9.8818  -7.0657   2.3323   4.2575
     5.1291   6.9239  11.6562  12.0655

          k = 0.0833-0.4330 0.1877 (  3915 PWs)   bands (ev):

   -29.1798 -11.5544 -10.8855 -10.5666  -9.8926  -7.0380   2.3332   4.2696
     4.8978   6.9819  11.6637  12.7287

          k = 0.0833-0.4330 0.3128 (  3914 PWs)   bands (ev):

   -29.1782 -11.3378 -11.1390 -10.5591  -9.9057  -7.0315   2.3399   4.2636
     4.7228   7.0157  11.7231  13.5944

          k = 0.0833-0.2406 0.0626 (  3935 PWs)   bands (ev):

   -29.2673 -11.7901 -10.7942 -10.4438 -10.3592  -5.4681   1.8239   4.9533
     6.2691   6.5160  10.4391  11.1818

          k = 0.0833-0.2406 0.1877 (  3920 PWs)   bands (ev):

   -29.2649 -11.9999 -10.7912 -10.4388 -10.1081  -5.4582   1.5304   4.9596
     6.1153   6.5010  11.2294  11.4822

          k = 0.0833-0.2406 0.3128 (  3930 PWs)   bands (ev):

   -29.2624 -12.1706 -10.7784 -10.4345  -9.9003  -5.4569   1.2715   4.9539
     5.9764   6.4790  11.3118  12.4818

          k = 0.0833-0.0481 0.0626 (  3953 PWs)   bands (ev):

   -29.3290 -12.0448 -10.7871 -10.3609 -10.3483  -4.4288   1.6159   5.5654
     5.8178   6.9353   9.4089  11.3991

          k = 0.0833-0.0481 0.1877 (  3924 PWs)   bands (ev):

   -29.3260 -12.4038 -10.4571 -10.3463 -10.2231  -4.4290   1.1314   5.5796
     5.8352   6.8475  10.6134  11.3396

          k = 0.0833-0.0481 0.3128 (  3900 PWs)   bands (ev):

   -29.3229 -12.6492 -10.4099 -10.3443  -9.9108  -4.4293   0.7000   5.5985
     5.8498   6.7550  11.2984  11.5311

          k = 0.2500 0.4330 0.0626 (  3913 PWs)   bands (ev):

   -29.1584 -11.5559 -10.8465 -10.6361  -9.5530  -7.5439   2.6546   3.4239
     4.6260   8.4050  10.8672  12.8549

          k = 0.2500 0.4330 0.1877 (  3920 PWs)   bands (ev):

   -29.1569 -11.4345 -10.8209 -10.7352  -9.6327  -7.5916   2.6670   3.5394
     4.5223   8.3610  10.9049  13.4666

          k = 0.2500 0.4330 0.3128 (  3907 PWs)   bands (ev):

   -29.1554 -11.2503 -10.9170 -10.7687  -9.7181  -7.6402   2.7097   3.6197
     4.4267   8.3134  10.9451  14.0922

          k = 0.2500 0.6255 0.0626 (  3906 PWs)   bands (ev):

   -29.1413 -11.4742 -10.9999 -10.6028  -9.1325  -8.0972   3.0105   3.1615
     4.1134   8.9325  10.7029  13.3216

          k = 0.2500 0.6255 0.1877 (  3912 PWs)   bands (ev):

   -29.1400 -11.3612 -10.9528 -10.6469  -9.2886  -8.1648   3.0677   3.2988
     4.0456   8.9069  10.6878  13.8630

          k = 0.2500 0.6255 0.3128 (  3912 PWs)   bands (ev):

   -29.1387 -11.2271 -10.9005 -10.6994  -9.4556  -8.2385   3.1595   3.4011
     3.9838   8.8735  10.6722  14.3085

          k = 0.2500-0.3368 0.0626 (  3914 PWs)   bands (ev):

   -29.1878 -11.6356 -10.6977 -10.6595  -9.9326  -6.9011   2.3088   3.9319
     5.2155   7.5948  11.1081  12.0963

          k = 0.2500-0.3368 0.1877 (  3928 PWs)   bands (ev):

   -29.1861 -11.5519 -10.8721 -10.6430  -9.8741  -6.9217   2.2563   3.9944
     5.0650   7.5572  11.1923  12.9033

          k = 0.2500-0.3368 0.3128 (  3919 PWs)   bands (ev):

   -29.1843 -11.4117 -11.0778 -10.6256  -9.8500  -6.9311   2.2192   4.0364
     4.9174   7.5299  11.2616  13.6878

          k = 0.2500-0.1443 0.0626 (  3925 PWs)   bands (ev):

   -29.2506 -11.7608 -10.7820 -10.4454 -10.3218  -5.7749   1.9053   4.9753
     6.0849   6.3897  10.7694  11.3525

          k = 0.2500-0.1443 0.1877 (  3928 PWs)   bands (ev):

   -29.2483 -11.9080 -10.8538 -10.4424 -10.0669  -5.7766   1.6776   4.9471
     5.9225   6.3999  11.4310  11.8214

          k = 0.2500-0.1443 0.3128 (  3925 PWs)   bands (ev):

   -29.2460 -12.0291 -10.8807 -10.4394  -9.8944  -5.7568   1.4562   4.9248
     5.7589   6.4149  11.5071  12.6873

          k = 0.4167 0.7217 0.0626 (  3910 PWs)   bands (ev):

   -29.1475 -11.6283 -10.7957 -10.6126  -9.2744  -7.9510   2.8051   3.4930
     4.4047   7.9450  11.4193  12.9971

          k = 0.4167 0.7217 0.1877 (  3917 PWs)   bands (ev):

   -29.1461 -11.4979 -10.7735 -10.6588  -9.4757  -7.9430   2.9346   3.5629
     4.2296   7.9582  11.3994  13.6690

          k = 0.4167 0.7217 0.3128 (  3925 PWs)   bands (ev):

   -29.1448 -11.3385 -10.7456 -10.7098  -9.7037  -7.9370   3.0615   3.6550
     4.0443   7.9771  11.3705  14.1511

          k = 0.4167-0.2406 0.0626 (  3928 PWs)   bands (ev):

   -29.1707 -11.7582 -10.6600 -10.5406  -9.6962  -7.3916   2.4233   4.5059
     4.9907   6.4139  12.1258  12.3638

          k = 0.4167-0.2406 0.1877 (  3928 PWs)   bands (ev):

   -29.1691 -11.6250 -10.7891 -10.5365  -9.7861  -7.3523   2.5078   4.4523
     4.7130   6.5288  12.1552  13.3854

          k = 0.4167-0.2406 0.3128 (  3911 PWs)   bands (ev):

   -29.1675 -11.4118 -10.9705 -10.5325  -9.9275  -7.2804   2.5718   4.4015
     4.4702   6.6552  12.1361  13.6943

          k =-0.0833-0.3368 0.0626 (  3923 PWs)   bands (ev):

   -29.2216 -11.6856 -10.7691 -10.5157 -10.2028  -6.2637   2.0481   4.5626
     5.7084   6.8141  11.2061  11.3862

          k =-0.0833-0.3368 0.1877 (  3919 PWs)   bands (ev):

   -29.2195 -11.6952 -10.9446 -10.5078 -10.0257  -6.2494   1.8988   4.5714
     5.5164   6.8281  11.3592  12.1313

          k =-0.0833-0.3368 0.3128 (  3914 PWs)   bands (ev):

   -29.2175 -11.7358 -11.0257 -10.5016  -9.9005  -6.2527   1.7735   4.5615
     5.3637   6.8161  11.4668  13.1055

          k =-0.0833-0.5292 0.0626 (  3919 PWs)   bands (ev):

   -29.1582 -11.7316 -10.6410 -10.6090  -9.5029  -7.6848   2.5744   4.0885
     4.7256   6.9293  11.9820  12.5380

          k =-0.0833-0.5292 0.1877 (  3926 PWs)   bands (ev):

   -29.1568 -11.5827 -10.7240 -10.5997  -9.6997  -7.6209   2.7086   4.0891
     4.4497   7.0103  11.9484  13.1988

          k =-0.0833-0.5292 0.3128 (  3917 PWs)   bands (ev):

   -29.1553 -11.3949 -10.8172 -10.5927  -9.9093  -7.5714   2.8387   4.0988
     4.2008   7.0892  11.9336  13.8609

          k =-0.0833 0.4330 0.0626 (  3917 PWs)   bands (ev):

   -29.1815 -11.7060 -10.6837 -10.5789  -9.8538  -7.0926   2.3423   4.2469
     5.1536   6.9033  11.6952  12.1807

          k =-0.0833 0.4330 0.1877 (  3915 PWs)   bands (ev):

   -29.1798 -11.5966 -10.8521 -10.5686  -9.8447  -7.0896   2.3501   4.2493
     4.9469   6.9385  11.7494  13.1385

          k =-0.0833 0.4330 0.3128 (  3914 PWs)   bands (ev):

   -29.1782 -11.3974 -11.0819 -10.5599  -9.8848  -7.0562   2.3469   4.2534
     4.7480   6.9931  11.7677  13.6589

          k =-0.0833 0.2406 0.0626 (  3935 PWs)   bands (ev):

   -29.2673 -11.7971 -10.7852 -10.4440 -10.3570  -5.4763   1.8303   4.9491
     6.2772   6.5104  10.4561  11.1775

          k =-0.0833 0.2406 0.1877 (  3920 PWs)   bands (ev):

   -29.2649 -12.0093 -10.7815 -10.4388 -10.1001  -5.4752   1.5427   4.9518
     6.1303   6.4893  11.2419  11.5203

          k =-0.0833 0.2406 0.3128 (  3930 PWs)   bands (ev):

   -29.2624 -12.1742 -10.7750 -10.4346  -9.8958  -5.4656   1.2776   4.9502
     5.9831   6.4736  11.3123  12.5076

          k =-0.0833 0.0481 0.0626 (  3953 PWs)   bands (ev):

   -29.3290 -12.0440 -10.7883 -10.3609 -10.3483  -4.4275   1.6145   5.5698
     5.8154   6.9328   9.4082  11.4206

          k =-0.0833 0.0481 0.1877 (  3924 PWs)   bands (ev):

   -29.3260 -12.4030 -10.4579 -10.3463 -10.2241  -4.4261   1.1286   5.5887
     5.8296   6.8439  10.6103  11.3814

          k =-0.0833 0.0481 0.3128 (  3900 PWs)   bands (ev):

   -29.3229 -12.6489 -10.4100 -10.3443  -9.9115  -4.4278   0.6986   5.6031
     5.8467   6.7536  11.3202  11.5063

          k =-0.2500-0.6255 0.0626 (  3906 PWs)   bands (ev):

   -29.1413 -11.4760 -10.9984 -10.6031  -9.1279  -8.1017   3.0309   3.1380
     4.1179   8.9285  10.7084  13.3947

          k =-0.2500-0.6255 0.1877 (  3912 PWs)   bands (ev):

   -29.1400 -11.3660 -10.9482 -10.6480  -9.2798  -8.1732   3.0897   3.2694
     4.0558   8.8983  10.6999  14.0879

          k =-0.2500-0.6255 0.3128 (  3912 PWs)   bands (ev):

   -29.1387 -11.2308 -10.8960 -10.7009  -9.4514  -8.2424   3.1681   3.3876
     3.9900   8.8689  10.6787  14.3220

          k =-0.2500 0.3368 0.0626 (  3914 PWs)   bands (ev):

   -29.1878 -11.6279 -10.7129 -10.6493  -9.9427  -6.8903   2.3031   3.9389
     5.2038   7.6068  11.0876  12.0504

          k =-0.2500 0.3368 0.1877 (  3928 PWs)   bands (ev):

   -29.1861 -11.5305 -10.8948 -10.6386  -9.8918  -6.9005   2.2468   4.0067
     5.0424   7.5812  11.1519  12.7455

          k =-0.2500 0.3368 0.3128 (  3919 PWs)   bands (ev):

   -29.1843 -11.3890 -11.1009 -10.6243  -9.8582  -6.9207   2.2152   4.0419
     4.9064   7.5419  11.2416  13.6523

          k =-0.2500 0.1443 0.0626 (  3925 PWs)   bands (ev):

   -29.2506 -11.7439 -10.8002 -10.4455 -10.3306  -5.7556   1.8922   4.9813
     6.0699   6.4024  10.7229  11.3554

          k =-0.2500 0.1443 0.1877 (  3928 PWs)   bands (ev):

   -29.2483 -11.8817 -10.8793 -10.4425 -10.0885  -5.7370   1.6520   4.9589
     5.8904   6.4303  11.3875  11.7101

          k =-0.2500 0.1443 0.3128 (  3925 PWs)   bands (ev):

   -29.2460 -12.0184 -10.8906 -10.4394  -9.9057  -5.7366   1.4436   4.9306
     5.7437   6.4301  11.4976  12.6341

          k =-0.4167 0.2406 0.0626 (  3928 PWs)   bands (ev):

   -29.1707 -11.7467 -10.6615 -10.5406  -9.7289  -7.3622   2.4163   4.5081
     4.9739   6.4302  12.1032  12.2191

          k =-0.4167 0.2406 0.1877 (  3928 PWs)   bands (ev):

   -29.1691 -11.5921 -10.8066 -10.5366  -9.8426  -7.2981   2.4972   4.4566
     4.6772   6.5649  12.0703  12.8893

          k =-0.4167 0.2406 0.3128 (  3911 PWs)   bands (ev):

   -29.1675 -11.3767 -11.0001 -10.5326  -9.9515  -7.2555   2.5684   4.4037
     4.4510   6.6746  12.0898  13.6639

!    total energy              =    -139.05436489 Ry
     Harris-Foulkes estimate   =    -139.05436488 Ry
     estimated scf accuracy    <       0.00000049 Ry

     The total energy is the sum of the following terms:

     one-electron contribution =     -26.00484305 Ry
     hartree contribution      =      27.36434796 Ry
     xc contribution           =     -26.16570877 Ry
     ewald contribution        =    -114.24816104 Ry

     convergence has been achieved in  11 iterations

     Forces acting on atoms (Ry/au):

     atom    1 type  3   force =     0.00000000    0.00000000    0.00149915
     atom    2 type  2   force =     0.00000000   -0.00000000   -0.19004282
     atom    3 type  2   force =     0.00000000    0.00000000    0.17721185
     atom    4 type  1   force =     0.00000000    0.00000000    0.05072111
     atom    5 type  1   force =     0.00000000    0.00000000   -0.03938929

     Total force =     0.267669     Total SCF correction =     0.000970


     entering subroutine stress ...

          total   stress  (Ry/bohr**3)                   (kbar)     P=  943.94
   0.00867294  -0.00000000   0.00000000       1275.83     -0.00      0.00
  -0.00000000   0.00867294   0.00000000         -0.00   1275.83      0.00
   0.00000000  -0.00000000   0.00190454          0.00     -0.00    280.17


     BFGS Geometry Optimization

     number of scf cycles    =   1
     number of bfgs steps    =   0

     enthalpy new            =    -137.6341874170 Ry

     new trust radius        =       0.3209821184 bohr
     new conv_thr            =       0.0000010000 Ry

     new unit-cell volume =    235.05251 a.u.^3 (    34.83119 Ang^3 )

CELL_PARAMETERS (alat=  5.86000000)
   1.063871582  -0.000000000   0.000000000
  -0.531935791   0.921339817  -0.000000000
   0.000000000   0.000000000   1.191689161

ATOMIC_POSITIONS (crystal)
Ca      -0.000000000  -0.000000000   0.000192063
O        0.333333333   0.666666667   0.447652766
O        0.666666667   0.333333333   0.560703401
H        0.333333333   0.666666667   0.714498108
H        0.666666667   0.333333333   0.286953663



     Writing output data file CaOH2_ambient.save
     NEW-OLD atomic charge density approx. for the potential
     NEW k-points:
        k(    1) = (   0.0783303   0.1356720   0.0699287), wk =   0.0370370
        k(    2) = (   0.0783303   0.1356720   0.2097862), wk =   0.0370370
        k(    3) = (   0.0783303   0.1356720   0.3496437), wk =   0.0370370
        k(    4) = (   0.0783303   0.3165680   0.0699287), wk =   0.0370370
        k(    5) = (   0.0783303   0.3165680   0.2097862), wk =   0.0370370
        k(    6) = (   0.0783303   0.3165680   0.3496437), wk =   0.0370370
        k(    7) = (   0.0783303   0.4974639   0.0699287), wk =   0.0370370
        k(    8) = (   0.0783303   0.4974639   0.2097862), wk =   0.0370370
        k(    9) = (   0.0783303   0.4974639   0.3496437), wk =   0.0370370
        k(   10) = (   0.0783303  -0.4070159   0.0699287), wk =   0.0370370
        k(   11) = (   0.0783303  -0.4070159   0.2097862), wk =   0.0370370
        k(   12) = (   0.0783303  -0.4070159   0.3496437), wk =   0.0370370
        k(   13) = (   0.0783303  -0.2261200   0.0699287), wk =   0.0370370
        k(   14) = (   0.0783303  -0.2261200   0.2097862), wk =   0.0370370
        k(   15) = (   0.0783303  -0.2261200   0.3496437), wk =   0.0370370
        k(   16) = (   0.0783303  -0.0452240   0.0699287), wk =   0.0185185
        k(   17) = (   0.0783303  -0.0452240   0.2097862), wk =   0.0185185
        k(   18) = (   0.0783303  -0.0452240   0.3496437), wk =   0.0185185
        k(   19) = (   0.2349908   0.4070159   0.0699287), wk =   0.0370370
        k(   20) = (   0.2349908   0.4070159   0.2097862), wk =   0.0370370
        k(   21) = (   0.2349908   0.4070159   0.3496437), wk =   0.0370370
        k(   22) = (   0.2349908   0.5879119   0.0699287), wk =   0.0370370
        k(   23) = (   0.2349908   0.5879119   0.2097862), wk =   0.0370370
        k(   24) = (   0.2349908   0.5879119   0.3496437), wk =   0.0370370
        k(   25) = (   0.2349908  -0.3165680   0.0699287), wk =   0.0370370
        k(   26) = (   0.2349908  -0.3165680   0.2097862), wk =   0.0370370
        k(   27) = (   0.2349908  -0.3165680   0.3496437), wk =   0.0370370
        k(   28) = (   0.2349908  -0.1356720   0.0699287), wk =   0.0185185
        k(   29) = (   0.2349908  -0.1356720   0.2097862), wk =   0.0185185
        k(   30) = (   0.2349908  -0.1356720   0.3496437), wk =   0.0185185
        k(   31) = (   0.3916513   0.6783599   0.0699287), wk =   0.0370370
        k(   32) = (   0.3916513   0.6783599   0.2097862), wk =   0.0370370
        k(   33) = (   0.3916513   0.6783599   0.3496437), wk =   0.0370370
        k(   34) = (   0.3916513  -0.2261200   0.0699287), wk =   0.0185185
        k(   35) = (   0.3916513  -0.2261200   0.2097862), wk =   0.0185185
        k(   36) = (   0.3916513  -0.2261200   0.3496437), wk =   0.0185185
        k(   37) = (  -0.0783303  -0.3165680   0.0699287), wk =   0.0370370
        k(   38) = (  -0.0783303  -0.3165680   0.2097862), wk =   0.0370370
        k(   39) = (  -0.0783303  -0.3165680   0.3496437), wk =   0.0370370
        k(   40) = (  -0.0783303  -0.4974639   0.0699287), wk =   0.0370370
        k(   41) = (  -0.0783303  -0.4974639   0.2097862), wk =   0.0370370
        k(   42) = (  -0.0783303  -0.4974639   0.3496437), wk =   0.0370370
        k(   43) = (  -0.0783303   0.4070159   0.0699287), wk =   0.0370370
        k(   44) = (  -0.0783303   0.4070159   0.2097862), wk =   0.0370370
        k(   45) = (  -0.0783303   0.4070159   0.3496437), wk =   0.0370370
        k(   46) = (  -0.0783303   0.2261200   0.0699287), wk =   0.0370370
        k(   47) = (  -0.0783303   0.2261200   0.2097862), wk =   0.0370370
        k(   48) = (  -0.0783303   0.2261200   0.3496437), wk =   0.0370370
        k(   49) = (  -0.0783303   0.0452240   0.0699287), wk =   0.0185185
        k(   50) = (  -0.0783303   0.0452240   0.2097862), wk =   0.0185185
        k(   51) = (  -0.0783303   0.0452240   0.3496437), wk =   0.0185185
        k(   52) = (  -0.2349908  -0.5879119   0.0699287), wk =   0.0370370
        k(   53) = (  -0.2349908  -0.5879119   0.2097862), wk =   0.0370370
        k(   54) = (  -0.2349908  -0.5879119   0.3496437), wk =   0.0370370
        k(   55) = (  -0.2349908   0.3165680   0.0699287), wk =   0.0370370
        k(   56) = (  -0.2349908   0.3165680   0.2097862), wk =   0.0370370
        k(   57) = (  -0.2349908   0.3165680   0.3496437), wk =   0.0370370
        k(   58) = (  -0.2349908   0.1356720   0.0699287), wk =   0.0185185
        k(   59) = (  -0.2349908   0.1356720   0.2097862), wk =   0.0185185
        k(   60) = (  -0.2349908   0.1356720   0.3496437), wk =   0.0185185
        k(   61) = (  -0.3916513   0.2261200   0.0699287), wk =   0.0185185
        k(   62) = (  -0.3916513   0.2261200   0.2097862), wk =   0.0185185
        k(   63) = (  -0.3916513   0.2261200   0.3496437), wk =   0.0185185
     extrapolated charge   24.27371, renormalised to   24.00000

     total cpu time spent up to now is      223.6 secs

     per-process dynamical memory:    18.8 Mb

     Self-consistent Calculation

     iteration #  1     ecut=   100.00 Ry     beta=0.30
     Davidson diagonalization with overlap
     ethr =  1.00E-06,  avg # of iterations = 10.0

     total cpu time spent up to now is      250.4 secs

     total energy              =    -139.35993706 Ry
     Harris-Foulkes estimate   =    -139.17306326 Ry
     estimated scf accuracy    <       0.35576291 Ry

     iteration #  2     ecut=   100.00 Ry     beta=0.30
     Davidson diagonalization with overlap
     ethr =  1.48E-03,  avg # of iterations =  1.0

     total cpu time spent up to now is      258.2 secs

     total energy              =    -139.18394025 Ry
     Harris-Foulkes estimate   =    -139.36137998 Ry
     estimated scf accuracy    <       0.26200386 Ry

     iteration #  3     ecut=   100.00 Ry     beta=0.30
     Davidson diagonalization with overlap
     ethr =  1.09E-03,  avg # of iterations =  4.3

     total cpu time spent up to now is      270.5 secs

     total energy              =    -139.31471554 Ry
     Harris-Foulkes estimate   =    -139.55820185 Ry
     estimated scf accuracy    <       1.21281827 Ry

     iteration #  4     ecut=   100.00 Ry     beta=0.30
     Davidson diagonalization with overlap
     ethr =  1.09E-03,  avg # of iterations =  2.8

     total cpu time spent up to now is      280.3 secs

     total energy              =    -139.23535433 Ry
     Harris-Foulkes estimate   =    -139.36122081 Ry
     estimated scf accuracy    <       0.34169312 Ry

     iteration #  5     ecut=   100.00 Ry     beta=0.30
     Davidson diagonalization with overlap
     ethr =  1.09E-03,  avg # of iterations =  2.7

     total cpu time spent up to now is      290.2 secs

     total energy              =    -139.30639437 Ry
     Harris-Foulkes estimate   =    -139.30667034 Ry
     estimated scf accuracy    <       0.00128379 Ry

     iteration #  6     ecut=   100.00 Ry     beta=0.30
     Davidson diagonalization with overlap
     ethr =  5.35E-06,  avg # of iterations =  4.7

     total cpu time spent up to now is      301.6 secs

     total energy              =    -139.33172461 Ry
     Harris-Foulkes estimate   =    -139.33307269 Ry
     estimated scf accuracy    <       0.07229920 Ry

     iteration #  7     ecut=   100.00 Ry     beta=0.30
     Davidson diagonalization with overlap
     ethr =  5.35E-06,  avg # of iterations =  1.6

     total cpu time spent up to now is      309.7 secs

     total energy              =    -139.32119333 Ry
     Harris-Foulkes estimate   =    -139.33179560 Ry
     estimated scf accuracy    <       0.07087890 Ry

     iteration #  8     ecut=   100.00 Ry     beta=0.30
     Davidson diagonalization with overlap
     ethr =  5.35E-06,  avg # of iterations =  3.8

     total cpu time spent up to now is      321.5 secs

     total energy              =    -139.31825468 Ry
     Harris-Foulkes estimate   =    -139.32352313 Ry
     estimated scf accuracy    <       0.01675504 Ry

     iteration #  9     ecut=   100.00 Ry     beta=0.30
     Davidson diagonalization with overlap
     ethr =  5.35E-06,  avg # of iterations =  4.0

     total cpu time spent up to now is      333.8 secs

     total energy              =    -139.32067214 Ry
     Harris-Foulkes estimate   =    -139.32115117 Ry
     estimated scf accuracy    <       0.00124517 Ry

     iteration # 10     ecut=   100.00 Ry     beta=0.30
     Davidson diagonalization with overlap
     ethr =  5.19E-06,  avg # of iterations =  2.9

     total cpu time spent up to now is      343.4 secs

     total energy              =    -139.32095565 Ry
     Harris-Foulkes estimate   =    -139.32109785 Ry
     estimated scf accuracy    <       0.00084125 Ry

     iteration # 11     ecut=   100.00 Ry     beta=0.30
     Davidson diagonalization with overlap
     ethr =  3.51E-06,  avg # of iterations =  1.4

     total cpu time spent up to now is      351.3 secs

     total energy              =    -139.32090813 Ry
     Harris-Foulkes estimate   =    -139.32099111 Ry
     estimated scf accuracy    <       0.00017616 Ry

     iteration # 12     ecut=   100.00 Ry     beta=0.30
     Davidson diagonalization with overlap
     ethr =  7.34E-07,  avg # of iterations =  3.2

     total cpu time spent up to now is      361.8 secs

     total energy              =    -139.32097068 Ry
     Harris-Foulkes estimate   =    -139.32103999 Ry
     estimated scf accuracy    <       0.00039736 Ry

     iteration # 13     ecut=   100.00 Ry     beta=0.30
     Davidson diagonalization with overlap
     ethr =  7.34E-07,  avg # of iterations =  2.0

     total cpu time spent up to now is      369.9 secs

     total energy              =    -139.32097577 Ry
     Harris-Foulkes estimate   =    -139.32099035 Ry
     estimated scf accuracy    <       0.00005033 Ry

     iteration # 14     ecut=   100.00 Ry     beta=0.30
     Davidson diagonalization with overlap
     ethr =  2.10E-07,  avg # of iterations =  3.3

     total cpu time spent up to now is      379.2 secs

     total energy              =    -139.32098805 Ry
     Harris-Foulkes estimate   =    -139.32099130 Ry
     estimated scf accuracy    <       0.00001481 Ry

     iteration # 15     ecut=   100.00 Ry     beta=0.30
     Davidson diagonalization with overlap
     ethr =  6.17E-08,  avg # of iterations =  1.6

     total cpu time spent up to now is      387.1 secs

     End of self-consistent calculation

          k = 0.0783 0.1357 0.0699 (  3927 PWs)   bands (ev):

   -29.7230 -11.5191 -11.0939 -11.0299 -10.2368  -5.3891   2.3212   5.9916
     6.3119   6.5353  10.0459  10.7594

          k = 0.0783 0.1357 0.2098 (  3931 PWs)   bands (ev):

   -29.7161 -11.8702 -11.1318 -11.0223  -9.7618  -5.3524   1.5813   5.9980
     6.0437   6.5699  10.6971  11.2254

          k = 0.0783 0.1357 0.3496 (  3917 PWs)   bands (ev):

   -29.7091 -12.1325 -11.1261 -11.0146  -9.4133  -5.3148   0.9685   5.7109
     6.0877   6.5932  10.7017  11.0971

          k = 0.0783 0.3166 0.0699 (  3923 PWs)   bands (ev):

   -29.6760 -11.8451 -11.1215 -11.0192  -9.5315  -6.4213   2.6154   5.3832
     5.5327   7.0111  10.6271  11.4452

          k = 0.0783 0.3166 0.2098 (  3919 PWs)   bands (ev):

   -29.6701 -11.7699 -11.2197 -11.1068  -9.4280  -6.3920   2.1901   5.0923
     5.4015   7.0074  10.8097  12.2030

          k = 0.0783 0.3166 0.3496 (  3914 PWs)   bands (ev):

   -29.6642 -11.6763 -11.4045 -11.0942  -9.3615  -6.3589   1.8330   4.7324
     5.4049   7.0088  10.9304  12.1463

          k = 0.0783 0.4975 0.0699 (  3919 PWs)   bands (ev):

   -29.6411 -12.0368 -11.1904 -10.9435  -8.7281  -7.4787   3.0242   4.7390
     5.0226   7.0492  11.1570  12.6128

          k = 0.0783 0.4975 0.2098 (  3926 PWs)   bands (ev):

   -29.6361 -11.8808 -11.1739 -11.0478  -8.9454  -7.4004   2.9349   4.1709
     5.0411   7.1492  11.1410  12.7160

          k = 0.0783 0.4975 0.3496 (  3917 PWs)   bands (ev):

   -29.6311 -11.6925 -11.1645 -11.1466  -9.1953  -7.3173   2.8425   3.7218
     5.0288   7.2852  11.0895  12.7291

          k = 0.0783-0.4070 0.0699 (  3917 PWs)   bands (ev):

   -29.6539 -11.9681 -11.1654 -10.9720  -9.1085  -7.0083   2.8386   5.0732
     5.1728   7.0787  10.8562  12.0266

          k = 0.0783-0.4070 0.2098 (  3915 PWs)   bands (ev):

   -29.6485 -11.8248 -11.1599 -11.1168  -9.1849  -6.9727   2.5889   4.6057
     5.1902   7.1541  10.8741  12.3889

          k = 0.0783-0.4070 0.3496 (  3914 PWs)   bands (ev):

   -29.6432 -11.6264 -11.3201 -11.1306  -9.2873  -6.9288   2.3632   4.2061
     5.1703   7.2073  10.9732  12.4550

          k = 0.0783-0.2261 0.0699 (  3935 PWs)   bands (ev):

   -29.7014 -11.6803 -11.0755 -11.0673  -9.9182  -5.8511   2.4386   5.7087
     5.9884   6.8220  10.3760  10.8226

          k = 0.0783-0.2261 0.2098 (  3920 PWs)   bands (ev):

   -29.6949 -11.7807 -11.2273 -11.0616  -9.6240  -5.8162   1.8426   5.6118
     5.7489   6.8128  10.6812  11.5742

          k = 0.0783-0.2261 0.3496 (  3930 PWs)   bands (ev):

   -29.6885 -11.9208 -11.2720 -11.0515  -9.4001  -5.7802   1.3461   5.2697
     5.7546   6.7944  10.8013  11.5555

          k = 0.0783-0.0452 0.0699 (  3953 PWs)   bands (ev):

   -29.7358 -11.4228 -11.0653 -11.0076 -10.4492  -5.1263   2.2639   6.1496
     6.3334   6.4986   9.7895  10.8611

          k = 0.0783-0.0452 0.2098 (  3924 PWs)   bands (ev):

   -29.7283 -11.9366 -11.0467 -11.0010  -9.8406  -5.0910   1.4405   6.2122
     6.2204   6.4349  10.6990  11.0164

          k = 0.0783-0.0452 0.3496 (  3900 PWs)   bands (ev):

   -29.7210 -12.2474 -11.0362 -10.9945  -9.4172  -5.0552   0.7614   5.9734
     6.2985   6.4904  10.6141  10.8144

          k = 0.2350 0.4070 0.0699 (  3913 PWs)   bands (ev):

   -29.6412 -11.8856 -11.3699 -10.9439  -8.8204  -7.3280   3.0895   4.4270
     4.6606   8.3048  10.2545  12.6606

          k = 0.2350 0.4070 0.2098 (  3920 PWs)   bands (ev):

   -29.6361 -11.7540 -11.3228 -11.0545  -8.9424  -7.3670   2.8562   4.2895
     4.6158   8.2002  10.3034  12.8540

          k = 0.2350 0.4070 0.3496 (  3907 PWs)   bands (ev):

   -29.6310 -11.5842 -11.2746 -11.1889  -9.0789  -7.4080   2.6746   3.9680
     4.7694   8.0965  10.3607  12.8051

          k = 0.2350 0.5879 0.0699 (  3906 PWs)   bands (ev):

   -29.6316 -11.8447 -11.4865 -10.9241  -8.4586  -7.7330   3.3900   4.1644
     4.2690   8.7219  10.1231  13.0691

          k = 0.2350 0.5879 0.2098 (  3912 PWs)   bands (ev):

   -29.6269 -11.7190 -11.4215 -11.0031  -8.6307  -7.8015   3.2129   3.9040
     4.4128   8.6449  10.0765  13.0467

          k = 0.2350 0.5879 0.3496 (  3912 PWs)   bands (ev):

   -29.6221 -11.5755 -11.3519 -11.0855  -8.8185  -7.8732   3.0634   3.6222
     4.6150   8.5632  10.0402  12.9509

          k = 0.2350-0.3166 0.0699 (  3914 PWs)   bands (ev):

   -29.6574 -11.8929 -11.2301 -10.9786  -9.1991  -6.8654   2.8129   4.8611
     5.1270   7.6552  10.4571  12.0449

          k = 0.2350-0.3166 0.2098 (  3928 PWs)   bands (ev):

   -29.6520 -11.7715 -11.2040 -11.1383  -9.2249  -6.8628   2.4960   4.7047
     4.9776   7.5740  10.5975  12.5459

          k = 0.2350-0.3166 0.3496 (  3919 PWs)   bands (ev):

   -29.6466 -11.5853 -11.3493 -11.1750  -9.2703  -6.8589   2.2396   4.3502
     5.0533   7.5093  10.7065  12.5251

          k = 0.2350-0.1357 0.0699 (  3925 PWs)   bands (ev):

   -29.6921 -11.7585 -11.0710 -11.0534  -9.7821  -6.0588   2.4942   5.7347
     5.8162   6.6897  10.6109  11.0077

          k = 0.2350-0.1357 0.2098 (  3928 PWs)   bands (ev):

   -29.6858 -11.7733 -11.2448 -11.0625  -9.5577  -6.0220   1.9633   5.4074
     5.6896   6.7395  10.8114  12.5096

          k = 0.2350-0.1357 0.3496 (  3925 PWs)   bands (ev):

   -29.6796 -11.8297 -11.3382 -11.0541  -9.3925  -5.9822   1.5174   5.0635
     5.6721   6.7640  10.9392  11.8030

          k = 0.3917 0.6784 0.0699 (  3910 PWs)   bands (ev):

   -29.6351 -11.9618 -11.3282 -10.9310  -8.5523  -7.6524   3.2085   4.4106
     4.5626   7.9134  10.6914  12.8635

          k = 0.3917 0.6784 0.2098 (  3917 PWs)   bands (ev):

   -29.6303 -11.8172 -11.2897 -11.0175  -8.7742  -7.6317   3.1095   3.9866
     4.6650   7.9029  10.6465  12.9102

          k = 0.3917 0.6784 0.3496 (  3925 PWs)   bands (ev):

   -29.6256 -11.6501 -11.2463 -11.1058  -9.0183  -7.6130   3.0218   3.6074
     4.7748   7.9142  10.5975  12.8729

          k = 0.3917-0.2261 0.0699 (  3928 PWs)   bands (ev):

   -29.6481 -12.0358 -11.1336 -10.9587  -8.9339  -7.2408   2.9008   4.9518
     5.4051   6.5910  11.2769  12.4122

          k = 0.3917-0.2261 0.2098 (  3928 PWs)   bands (ev):

   -29.6428 -11.8818 -11.1232 -11.0899  -9.0859  -7.1674   2.7476   4.3827
     5.2996   6.7923  11.3042  13.9429

          k = 0.3917-0.2261 0.3496 (  3911 PWs)   bands (ev):

   -29.6376 -11.6827 -11.2373 -11.1129  -9.2770  -7.0809   2.5868   3.9496
     5.2069   6.9947  11.2703  12.5836

          k =-0.0783-0.3166 0.0699 (  3923 PWs)   bands (ev):

   -29.6760 -11.8427 -11.1221 -11.0200  -9.5341  -6.4212   2.6171   5.4018
     5.5523   7.0276  10.5614  11.3735

          k =-0.0783-0.3166 0.2098 (  3919 PWs)   bands (ev):

   -29.6701 -11.7628 -11.2259 -11.1064  -9.4323  -6.3920   2.1926   5.1226
     5.4378   7.0394  10.7150  12.0005

          k =-0.0783-0.3166 0.3496 (  3914 PWs)   bands (ev):

   -29.6642 -11.6689 -11.4114 -11.0942  -9.3634  -6.3590   1.8337   4.7450
     5.4231   7.0236  10.8888  12.0487

          k =-0.0783-0.4975 0.0699 (  3919 PWs)   bands (ev):

   -29.6411 -12.0360 -11.1906 -10.9437  -8.7301  -7.4776   3.0245   4.7479
     5.0265   7.0581  11.1254  12.5139

          k =-0.0783-0.4975 0.2098 (  3926 PWs)   bands (ev):

   -29.6361 -11.8785 -11.1746 -11.0487  -8.9487  -7.3989   2.9321   4.1871
     5.0507   7.1707  11.0703  12.6486

          k =-0.0783-0.4975 0.3496 (  3917 PWs)   bands (ev):

   -29.6311 -11.6906 -11.1677 -11.1450  -9.1967  -7.3168   2.8389   3.7309
     5.0337   7.2981  11.0509  12.6971

          k =-0.0783 0.4070 0.0699 (  3917 PWs)   bands (ev):

   -29.6539 -11.9701 -11.1650 -10.9714  -9.1052  -7.0092   2.8371   5.0503
     5.1630   7.0575  10.9286  12.1898

          k =-0.0783 0.4070 0.2098 (  3915 PWs)   bands (ev):

   -29.6485 -11.8309 -11.1554 -11.1168  -9.1790  -6.9742   2.5891   4.5729
     5.1636   7.1071  11.0214  12.5611

          k =-0.0783 0.4070 0.3496 (  3914 PWs)   bands (ev):

   -29.6432 -11.6336 -11.3132 -11.1309  -9.2847  -6.9294   2.3647   4.1914
     5.1568   7.1819  11.0486  12.5374

          k =-0.0783 0.2261 0.0699 (  3935 PWs)   bands (ev):

   -29.7014 -11.6818 -11.0729 -11.0688  -9.9172  -5.8509   2.4377   5.6944
     5.9759   6.8230  10.4171  10.8073

          k =-0.0783 0.2261 0.2098 (  3920 PWs)   bands (ev):

   -29.6949 -11.7839 -11.2248 -11.0615  -9.6223  -5.8158   1.8409   5.5980
     5.7172   6.8149  10.6724  11.7199

          k =-0.0783 0.2261 0.3496 (  3930 PWs)   bands (ev):

   -29.6885 -11.9221 -11.2709 -11.0515  -9.3994  -5.7800   1.3454   5.2640
     5.7388   6.7961  10.7923  11.6260

          k =-0.0783 0.0452 0.0699 (  3953 PWs)   bands (ev):

   -29.7358 -11.4223 -11.0657 -11.0077 -10.4494  -5.1264   2.2640   6.1701
     6.3179   6.4973   9.7832  10.9287

          k =-0.0783 0.0452 0.2098 (  3924 PWs)   bands (ev):

   -29.7283 -11.9363 -11.0467 -11.0012  -9.8409  -5.0912   1.4409   6.2179
     6.2559   6.3994  10.8317  10.8618

          k =-0.0783 0.0452 0.3496 (  3900 PWs)   bands (ev):

   -29.7210 -12.2472 -11.0362 -10.9945  -9.4173  -5.0553   0.7615   5.9731
     6.3220   6.4699  10.6838  10.7357

          k =-0.2350-0.5879 0.0699 (  3906 PWs)   bands (ev):

   -29.6316 -11.8449 -11.4863 -10.9241  -8.4581  -7.7333   3.3898   4.1676
     4.2644   8.7150  10.1336  13.1014

          k =-0.2350-0.5879 0.2098 (  3912 PWs)   bands (ev):

   -29.6269 -11.7197 -11.4210 -11.0031  -8.6299  -7.8021   3.2136   3.9028
     4.4101   8.6306  10.0986  13.0588

          k =-0.2350-0.5879 0.3496 (  3912 PWs)   bands (ev):

   -29.6221 -11.5761 -11.3514 -11.0854  -8.8181  -7.8734   3.0641   3.6211
     4.6138   8.5557  10.0519  12.9560

          k =-0.2350 0.3166 0.0699 (  3914 PWs)   bands (ev):

   -29.6574 -11.8918 -11.2305 -10.9789  -9.2005  -6.8651   2.8138   4.8655
     5.1358   7.6715  10.4190  11.9801

          k =-0.2350 0.3166 0.2098 (  3928 PWs)   bands (ev):

   -29.6520 -11.7683 -11.2072 -11.1376  -9.2273  -6.8623   2.4966   4.7138
     4.9933   7.6044  10.5251  12.4652

          k =-0.2350 0.3166 0.3496 (  3919 PWs)   bands (ev):

   -29.6466 -11.5807 -11.3544 -11.1743  -9.2714  -6.8586   2.2394   4.3551
     5.0603   7.5234  10.6714  12.4884

          k =-0.2350 0.1357 0.0699 (  3925 PWs)   bands (ev):

   -29.6921 -11.7555 -11.0712 -11.0552  -9.7846  -6.0590   2.4962   5.7642
     5.8459   6.6877  10.5268  11.0090

          k =-0.2350 0.1357 0.2098 (  3928 PWs)   bands (ev):

   -29.6858 -11.7656 -11.2508 -11.0628  -9.5618  -6.0226   1.9668   5.4450
     5.7486   6.7426  10.7940  12.2994

          k =-0.2350 0.1357 0.3496 (  3925 PWs)   bands (ev):

   -29.6796 -11.8256 -11.3416 -11.0542  -9.3943  -5.9825   1.5189   5.0778
     5.7014   6.7658  10.9424  11.6568

          k =-0.3917 0.2261 0.0699 (  3928 PWs)   bands (ev):

   -29.6481 -12.0341 -11.1337 -10.9593  -8.9375  -7.2395   2.9017   4.9727
     5.4166   6.6029  11.2162  12.2172

          k =-0.3917 0.2261 0.2098 (  3928 PWs)   bands (ev):

   -29.6428 -11.8769 -11.1234 -11.0929  -9.0920  -7.1653   2.7450   4.4176
     5.3217   6.8269  11.1691  13.3361

          k =-0.3917 0.2261 0.3496 (  3911 PWs)   bands (ev):

   -29.6376 -11.6780 -11.2413 -11.1130  -9.2796  -7.0802   2.5834   3.9662
     5.2175   7.0163  11.1980  12.5112

!    total energy              =    -139.32098888 Ry
     Harris-Foulkes estimate   =    -139.32098933 Ry
     estimated scf accuracy    <       0.00000059 Ry

     The total energy is the sum of the following terms:

     one-electron contribution =     -24.98081911 Ry
     hartree contribution      =      26.79214954 Ry
     xc contribution           =     -26.19217323 Ry
     ewald contribution        =    -114.94014609 Ry

     convergence has been achieved in  15 iterations

     Forces acting on atoms (Ry/au):

     atom    1 type  3   force =     0.00000000    0.00000000    0.00218074
     atom    2 type  2   force =    -0.00000000   -0.00000000   -0.19776708
     atom    3 type  2   force =     0.00000000    0.00000000    0.17995958
     atom    4 type  1   force =     0.00000000    0.00000000   -0.00742637
     atom    5 type  1   force =     0.00000000    0.00000000    0.02305312

     Total force =     0.268493     Total SCF correction =     0.000599


     entering subroutine stress ...

          total   stress  (Ry/bohr**3)                   (kbar)     P=  705.90
   0.00714286   0.00000000   0.00000000       1050.75      0.00      0.00
   0.00000000   0.00714286   0.00000000          0.00   1050.75      0.00
   0.00000000   0.00000000   0.00011010          0.00      0.00     16.20


     number of scf cycles    =   2
     number of bfgs steps    =   1

     enthalpy old            =    -137.6341874170 Ry
     enthalpy new            =    -137.8829196262 Ry

     CASE: enthalpy_new < enthalpy_old


     WARNING: bfgs curvature condition failed, Theta= 0.782
     new trust radius        =       0.3971305984 bohr
     new conv_thr            =       0.0000010000 Ry

     new unit-cell volume =    235.73792 a.u.^3 (    34.93275 Ang^3 )

CELL_PARAMETERS (alat=  5.86000000)
   1.141933735  -0.000000000   0.000000000
  -0.570966868   0.988943624  -0.000000000
  -0.000000000   0.000000000   1.037347239

ATOMIC_POSITIONS (crystal)
Ca      -0.000000000  -0.000000000   0.000409282
O        0.333333333   0.666666667   0.419222279
O        0.666666667   0.333333333   0.587265004
H        0.333333333   0.666666667   0.722770335
H        0.666666667   0.333333333   0.280333101



     Writing output data file CaOH2_ambient.save
     NEW-OLD atomic charge density approx. for the potential
     NEW k-points:
        k(    1) = (   0.0729756   0.1263975   0.0803331), wk =   0.0370370
        k(    2) = (   0.0729756   0.1263975   0.2409993), wk =   0.0370370
        k(    3) = (   0.0729756   0.1263975   0.4016656), wk =   0.0370370
        k(    4) = (   0.0729756   0.2949275   0.0803331), wk =   0.0370370
        k(    5) = (   0.0729756   0.2949275   0.2409993), wk =   0.0370370
        k(    6) = (   0.0729756   0.2949275   0.4016656), wk =   0.0370370
        k(    7) = (   0.0729756   0.4634575   0.0803331), wk =   0.0370370
        k(    8) = (   0.0729756   0.4634575   0.2409993), wk =   0.0370370
        k(    9) = (   0.0729756   0.4634575   0.4016656), wk =   0.0370370
        k(   10) = (   0.0729756  -0.3791925   0.0803331), wk =   0.0370370
        k(   11) = (   0.0729756  -0.3791925   0.2409993), wk =   0.0370370
        k(   12) = (   0.0729756  -0.3791925   0.4016656), wk =   0.0370370
        k(   13) = (   0.0729756  -0.2106625   0.0803331), wk =   0.0370370
        k(   14) = (   0.0729756  -0.2106625   0.2409993), wk =   0.0370370
        k(   15) = (   0.0729756  -0.2106625   0.4016656), wk =   0.0370370
        k(   16) = (   0.0729756  -0.0421325   0.0803331), wk =   0.0185185
        k(   17) = (   0.0729756  -0.0421325   0.2409993), wk =   0.0185185
        k(   18) = (   0.0729756  -0.0421325   0.4016656), wk =   0.0185185
        k(   19) = (   0.2189269   0.3791925   0.0803331), wk =   0.0370370
        k(   20) = (   0.2189269   0.3791925   0.2409993), wk =   0.0370370
        k(   21) = (   0.2189269   0.3791925   0.4016656), wk =   0.0370370
        k(   22) = (   0.2189269   0.5477225   0.0803331), wk =   0.0370370
        k(   23) = (   0.2189269   0.5477225   0.2409993), wk =   0.0370370
        k(   24) = (   0.2189269   0.5477225   0.4016656), wk =   0.0370370
        k(   25) = (   0.2189269  -0.2949275   0.0803331), wk =   0.0370370
        k(   26) = (   0.2189269  -0.2949275   0.2409993), wk =   0.0370370
        k(   27) = (   0.2189269  -0.2949275   0.4016656), wk =   0.0370370
        k(   28) = (   0.2189269  -0.1263975   0.0803331), wk =   0.0185185
        k(   29) = (   0.2189269  -0.1263975   0.2409993), wk =   0.0185185
        k(   30) = (   0.2189269  -0.1263975   0.4016656), wk =   0.0185185
        k(   31) = (   0.3648781   0.6319875   0.0803331), wk =   0.0370370
        k(   32) = (   0.3648781   0.6319875   0.2409993), wk =   0.0370370
        k(   33) = (   0.3648781   0.6319875   0.4016656), wk =   0.0370370
        k(   34) = (   0.3648781  -0.2106625   0.0803331), wk =   0.0185185
        k(   35) = (   0.3648781  -0.2106625   0.2409993), wk =   0.0185185
        k(   36) = (   0.3648781  -0.2106625   0.4016656), wk =   0.0185185
        k(   37) = (  -0.0729756  -0.2949275   0.0803331), wk =   0.0370370
        k(   38) = (  -0.0729756  -0.2949275   0.2409993), wk =   0.0370370
        k(   39) = (  -0.0729756  -0.2949275   0.4016656), wk =   0.0370370
        k(   40) = (  -0.0729756  -0.4634575   0.0803331), wk =   0.0370370
        k(   41) = (  -0.0729756  -0.4634575   0.2409993), wk =   0.0370370
        k(   42) = (  -0.0729756  -0.4634575   0.4016656), wk =   0.0370370
        k(   43) = (  -0.0729756   0.3791925   0.0803331), wk =   0.0370370
        k(   44) = (  -0.0729756   0.3791925   0.2409993), wk =   0.0370370
        k(   45) = (  -0.0729756   0.3791925   0.4016656), wk =   0.0370370
        k(   46) = (  -0.0729756   0.2106625   0.0803331), wk =   0.0370370
        k(   47) = (  -0.0729756   0.2106625   0.2409993), wk =   0.0370370
        k(   48) = (  -0.0729756   0.2106625   0.4016656), wk =   0.0370370
        k(   49) = (  -0.0729756   0.0421325   0.0803331), wk =   0.0185185
        k(   50) = (  -0.0729756   0.0421325   0.2409993), wk =   0.0185185
        k(   51) = (  -0.0729756   0.0421325   0.4016656), wk =   0.0185185
        k(   52) = (  -0.2189269  -0.5477225   0.0803331), wk =   0.0370370
        k(   53) = (  -0.2189269  -0.5477225   0.2409993), wk =   0.0370370
        k(   54) = (  -0.2189269  -0.5477225   0.4016656), wk =   0.0370370
        k(   55) = (  -0.2189269   0.2949275   0.0803331), wk =   0.0370370
        k(   56) = (  -0.2189269   0.2949275   0.2409993), wk =   0.0370370
        k(   57) = (  -0.2189269   0.2949275   0.4016656), wk =   0.0370370
        k(   58) = (  -0.2189269   0.1263975   0.0803331), wk =   0.0185185
        k(   59) = (  -0.2189269   0.1263975   0.2409993), wk =   0.0185185
        k(   60) = (  -0.2189269   0.1263975   0.4016656), wk =   0.0185185
        k(   61) = (  -0.3648781   0.2106625   0.0803331), wk =   0.0185185
        k(   62) = (  -0.3648781   0.2106625   0.2409993), wk =   0.0185185
        k(   63) = (  -0.3648781   0.2106625   0.4016656), wk =   0.0185185
     extrapolated charge   24.06397, renormalised to   24.00000

     total cpu time spent up to now is      467.9 secs

     per-process dynamical memory:    18.8 Mb

     Self-consistent Calculation

     iteration #  1     ecut=   100.00 Ry     beta=0.30
     Davidson diagonalization with overlap
     ethr =  1.00E-06,  avg # of iterations =  9.0

     total cpu time spent up to now is      494.4 secs

     total energy              =    -139.64316727 Ry
     Harris-Foulkes estimate   =    -139.60749368 Ry
     estimated scf accuracy    <       0.08786152 Ry

     iteration #  2     ecut=   100.00 Ry     beta=0.30
     Davidson diagonalization with overlap
     ethr =  3.66E-04,  avg # of iterations =  1.0

     total cpu time spent up to now is      502.2 secs

     total energy              =    -139.61963652 Ry
     Harris-Foulkes estimate   =    -139.64386441 Ry
     estimated scf accuracy    <       0.05118835 Ry

     iteration #  3     ecut=   100.00 Ry     beta=0.30
     Davidson diagonalization with overlap
     ethr =  2.13E-04,  avg # of iterations =  2.0

     total cpu time spent up to now is      512.3 secs

     total energy              =    -139.63472977 Ry
     Harris-Foulkes estimate   =    -139.63382366 Ry
     estimated scf accuracy    <       0.01044620 Ry

     iteration #  4     ecut=   100.00 Ry     beta=0.30
     Davidson diagonalization with overlap
     ethr =  4.35E-05,  avg # of iterations =  1.0

     total cpu time spent up to now is      520.1 secs

     total energy              =    -139.62723071 Ry
     Harris-Foulkes estimate   =    -139.63485370 Ry
     estimated scf accuracy    <       0.01293660 Ry

     iteration #  5     ecut=   100.00 Ry     beta=0.30
     Davidson diagonalization with overlap
     ethr =  4.35E-05,  avg # of iterations =  3.0

     total cpu time spent up to now is      531.0 secs

     total energy              =    -139.63112939 Ry
     Harris-Foulkes estimate   =    -139.63167212 Ry
     estimated scf accuracy    <       0.00297181 Ry

     iteration #  6     ecut=   100.00 Ry     beta=0.30
     Davidson diagonalization with overlap
     ethr =  1.24E-05,  avg # of iterations =  1.0

     total cpu time spent up to now is      538.8 secs

     total energy              =    -139.63085233 Ry
     Harris-Foulkes estimate   =    -139.63122501 Ry
     estimated scf accuracy    <       0.00126979 Ry

     iteration #  7     ecut=   100.00 Ry     beta=0.30
     Davidson diagonalization with overlap
     ethr =  5.29E-06,  avg # of iterations =  2.0

     total cpu time spent up to now is      548.2 secs

     total energy              =    -139.63096325 Ry
     Harris-Foulkes estimate   =    -139.63099799 Ry
     estimated scf accuracy    <       0.00009235 Ry

     iteration #  8     ecut=   100.00 Ry     beta=0.30
     Davidson diagonalization with overlap
     ethr =  3.85E-07,  avg # of iterations =  2.3

     total cpu time spent up to now is      558.7 secs

     End of self-consistent calculation

          k = 0.0730 0.1264 0.0803 (  3927 PWs)   bands (ev):

   -29.7385 -11.4694 -11.1587 -11.0017  -9.6949  -6.2821   3.4053   6.0125
     6.2182   6.6137  10.0541  10.6518

          k = 0.0730 0.1264 0.2410 (  3931 PWs)   bands (ev):

   -29.7129 -11.6802 -11.1895 -11.1315  -9.2414  -6.1640   2.0398   5.3531
     6.3861   6.7837  10.0122  10.5042

          k = 0.0730 0.1264 0.4017 (  3917 PWs)   bands (ev):

   -29.6868 -11.9744 -11.1750 -11.1042  -8.8849  -6.0397   0.9956   4.7153
     6.5775   6.9181  10.0024  10.2717

          k = 0.0730 0.2949 0.0803 (  3923 PWs)   bands (ev):

   -29.7144 -11.8419 -11.2243 -10.9384  -8.9877  -6.9418   3.6301   5.5306
     5.8626   7.0509   9.8667  11.2470

          k = 0.0730 0.2949 0.2410 (  3919 PWs)   bands (ev):

   -29.6899 -11.7110 -11.2276 -11.1812  -8.8984  -6.8193   2.5525   4.6643
     5.9272   7.1064  10.1292  11.2874

          k = 0.0730 0.2949 0.4017 (  3914 PWs)   bands (ev):

   -29.6652 -11.6673 -11.3686 -11.1506  -8.8461  -6.7012   1.7247   3.9348
     6.0028   7.1522  10.3277  11.1685

          k = 0.0730 0.4635 0.0803 (  3919 PWs)   bands (ev):

   -29.6961 -12.0284 -11.2747 -10.8983  -8.2803  -7.6630   3.9373   5.0494
     5.6061   7.0648  10.2836  11.5794

          k = 0.0730 0.4635 0.2410 (  3926 PWs)   bands (ev):

   -29.6730 -11.8073 -11.2354 -11.1332  -8.4701  -7.5013   3.2022   3.9763
     5.6896   7.2355  10.3013  11.6263

          k = 0.0730 0.4635 0.4017 (  3917 PWs)   bands (ev):

   -29.6496 -11.5445 -11.3682 -11.1846  -8.7075  -7.3356   2.5864   3.1419
     5.7081   7.4817  10.2634  11.6182

          k = 0.0730-0.3792 0.0803 (  3917 PWs)   bands (ev):

   -29.7028 -11.9678 -11.2558 -10.9108  -8.5933  -7.3481   3.7908   5.3148
     5.7144   7.1089  10.0206  11.3498

          k = 0.0730-0.3792 0.2410 (  3915 PWs)   bands (ev):

   -29.6790 -11.7776 -11.2182 -11.1625  -8.6409  -7.2468   2.8915   4.3518
     5.8286   7.2543  10.0948  11.2854

          k = 0.0730-0.3792 0.4017 (  3914 PWs)   bands (ev):

   -29.6553 -11.5606 -11.4012 -11.1728  -8.7665  -7.0967   2.1736   3.5425
     5.8400   7.3702  10.2501  11.3482

          k = 0.0730-0.2107 0.0803 (  3935 PWs)   bands (ev):

   -29.7277 -11.6710 -11.1885 -10.9669  -9.3575  -6.5849   3.4946   5.8404
     6.0753   6.8720   9.8522  10.8308

          k = 0.0730-0.2107 0.2410 (  3920 PWs)   bands (ev):

   -29.7023 -11.6816 -11.2249 -11.1574  -9.0833  -6.4689   2.2621   5.0698
     6.2226   6.9425  10.0626  10.6767

          k = 0.0730-0.2107 0.4017 (  3930 PWs)   bands (ev):

   -29.6770 -11.8381 -11.2659 -11.1259  -8.8724  -6.3382   1.3159   4.3632
     6.3214   6.9860  10.2199  10.6129

          k = 0.0730-0.0421 0.0803 (  3953 PWs)   bands (ev):

   -29.7458 -11.3032 -11.1432 -11.0366  -9.9137  -6.1111   3.3606   6.1070
     6.2773   6.4521  10.2295  11.7836

          k = 0.0730-0.0421 0.2410 (  3924 PWs)   bands (ev):

   -29.7189 -11.6947 -11.1447 -11.1178  -9.3297  -5.9969   1.9217   5.5257
     6.4721   6.7038   9.9874  10.3646

          k = 0.0730-0.0421 0.4017 (  3900 PWs)   bands (ev):

   -29.6925 -12.0503 -11.1191 -11.0924  -8.8863  -5.8787   0.8216   4.9287
     6.7419   6.9251   9.8247  10.0259

          k = 0.2189 0.3792 0.0803 (  3913 PWs)   bands (ev):

   -29.6960 -11.8953 -11.4399 -10.8966  -8.3864  -7.5022   3.9671   5.0183
     5.0968   8.0855   9.5429  11.8397

          k = 0.2189 0.3792 0.2410 (  3920 PWs)   bands (ev):

   -29.6727 -11.7110 -11.3542 -11.1271  -8.4841  -7.4658   3.0990   4.1115
     5.4146   7.9601   9.6529  11.7507

          k = 0.2189 0.3792 0.4017 (  3907 PWs)   bands (ev):

   -29.6492 -11.4928 -11.3579 -11.2646  -8.6140  -7.4290   2.4234   3.3601
     5.7020   7.8340   9.7674  11.6291

          k = 0.2189 0.5477 0.0803 (  3906 PWs)   bands (ev):

   -29.6906 -11.8612 -11.5426 -10.8865  -8.1222  -7.7487   4.1798   4.7426
     4.8995   8.4033   9.4511  12.0339

          k = 0.2189 0.5477 0.2410 (  3912 PWs)   bands (ev):

   -29.6680 -11.6780 -11.4328 -11.1006  -8.2554  -7.7532   3.3751   3.8446
     5.2612   8.3141   9.4199  11.8998

          k = 0.2189 0.5477 0.4017 (  3912 PWs)   bands (ev):

   -29.6450 -11.4689 -11.3204 -11.3055  -8.4216  -7.7569   2.7299   3.1069
     5.6239   8.2204   9.4048  11.7305

          k = 0.2189-0.2949 0.0803 (  3914 PWs)   bands (ev):

   -29.7045 -11.8956 -11.3177 -10.9152  -8.6909  -7.2211   3.7722   5.2893
     5.4644   7.5672   9.7127  11.5417

          k = 0.2189-0.2949 0.2410 (  3928 PWs)   bands (ev):

   -29.6809 -11.7248 -11.2646 -11.1697  -8.7126  -7.1314   2.8091   4.3946
     5.6637   7.4903   9.9463  11.5219

          k = 0.2189-0.2949 0.4017 (  3919 PWs)   bands (ev):

   -29.6569 -11.5544 -11.3944 -11.2009  -8.7664  -7.0438   2.0675   3.6424
     5.8373   7.4287  10.1302  11.4339

          k = 0.2189-0.1264 0.0803 (  3925 PWs)   bands (ev):

   -29.7228 -11.7496 -11.1839 -10.9592  -9.2277  -6.7095   3.5392   5.7056
     6.0918   6.8004   9.8931  11.0583

          k = 0.2189-0.1264 0.2410 (  3928 PWs)   bands (ev):

   -29.6978 -11.6873 -11.2423 -11.1551  -9.0279  -6.5792   2.3589   4.8945
     6.0925   6.9474  10.1076  11.1023

          k = 0.2189-0.1264 0.4017 (  3925 PWs)   bands (ev):

   -29.6726 -11.7736 -11.3150 -11.1264  -8.8738  -6.4541   1.4567   4.1941
     6.1580   7.0322  10.3081  10.9127

          k = 0.3649 0.6320 0.0803 (  3910 PWs)   bands (ev):

   -29.6928 -11.9640 -11.3997 -10.8906  -8.1482  -7.7568   4.0615   4.8750
     5.1721   7.7675   9.8979  11.8481

          k = 0.3649 0.6320 0.2410 (  3917 PWs)   bands (ev):

   -29.6700 -11.7568 -11.3282 -11.1113  -8.3418  -7.6570   3.3236   3.8767
     5.4348   7.7736   9.8745  11.7841

          k = 0.3649 0.6320 0.4017 (  3925 PWs)   bands (ev):

   -29.6472 -11.5166 -11.3341 -11.2424  -8.5722  -7.5578   2.7261   3.0639
     5.6568   7.8284   9.8424  11.6914

          k = 0.3649-0.2107 0.0803 (  3928 PWs)   bands (ev):

   -29.7000 -12.0251 -11.2244 -10.9071  -8.4630  -7.4919   3.8499   5.1740
     5.9576   6.6589  10.3897  11.4123

          k = 0.3649-0.2107 0.2410 (  3928 PWs)   bands (ev):

   -29.6764 -11.8075 -11.1923 -11.1618  -8.5914  -7.3342   3.0431   4.1238
     5.8470   6.9927  10.4617  11.5296

          k = 0.3649-0.2107 0.4017 (  3911 PWs)   bands (ev):

   -29.6527 -11.5435 -11.4090 -11.1602  -8.7740  -7.1681   2.3657   3.3247
     5.7609   7.3169  10.4477  11.5332

          k =-0.0730-0.2949 0.0803 (  3923 PWs)   bands (ev):

   -29.7144 -11.8453 -11.2241 -10.9355  -8.9765  -6.9590   3.6276   5.5976
     5.8863   7.0674   9.8223  11.0908

          k =-0.0730-0.2949 0.2410 (  3919 PWs)   bands (ev):

   -29.6899 -11.7226 -11.2117 -11.1860  -8.8762  -6.8544   2.5589   4.7235
     6.0134   7.1355  10.0520  10.9676

          k =-0.0730-0.2949 0.4017 (  3914 PWs)   bands (ev):

   -29.6652 -11.6760 -11.3598 -11.1511  -8.8351  -6.7190   1.7296   3.9550
     6.0526   7.1602  10.2946  11.0039

          k =-0.0730-0.4635 0.0803 (  3919 PWs)   bands (ev):

   -29.6960 -12.0295 -11.2745 -10.8975  -8.2606  -7.6853   3.9310   5.0822
     5.6111   7.0787  10.2461  11.5323

          k =-0.0730-0.4635 0.2410 (  3926 PWs)   bands (ev):

   -29.6730 -11.8112 -11.2341 -11.1311  -8.4457  -7.5310   3.1879   4.0199
     5.7118   7.2704  10.2151  11.5277

          k =-0.0730-0.4635 0.4017 (  3917 PWs)   bands (ev):

   -29.6496 -11.5515 -11.3610 -11.1850  -8.6991  -7.3466   2.5778   3.1615
     5.7203   7.5039  10.2135  11.5683

          k =-0.0730 0.3792 0.0803 (  3917 PWs)   bands (ev):

   -29.7028 -11.9648 -11.2561 -10.9131  -8.6135  -7.3218   3.7982   5.2433
     5.6997   7.0776  10.0998  11.4744

          k =-0.0730 0.3792 0.2410 (  3915 PWs)   bands (ev):

   -29.6790 -11.7675 -11.2240 -11.1661  -8.6765  -7.1985   2.8967   4.2777
     5.7663   7.1856  10.2634  11.5447

          k =-0.0730 0.3792 0.4017 (  3914 PWs)   bands (ev):

   -29.6553 -11.5393 -11.4227 -11.1721  -8.7819  -7.0748   2.1743   3.5159
     5.8053   7.3345  10.3388  11.4809

          k =-0.0730 0.2107 0.0803 (  3935 PWs)   bands (ev):

   -29.7277 -11.6687 -11.1885 -10.9691  -9.3611  -6.5784   3.4947   5.8067
     6.0499   6.8870   9.8287  10.9505

          k =-0.0730 0.2107 0.2410 (  3920 PWs)   bands (ev):

   -29.7023 -11.6755 -11.2320 -11.1563  -9.0911  -6.4547   2.2566   5.0447
     6.1472   6.9712  10.0109  10.9092

          k =-0.0730 0.2107 0.4017 (  3930 PWs)   bands (ev):

   -29.6770 -11.8360 -11.2682 -11.1256  -8.8766  -6.3304   1.3123   4.3549
     6.2758   7.0062  10.1918  10.7300

          k =-0.0730 0.0421 0.0803 (  3953 PWs)   bands (ev):

   -29.7458 -11.3044 -11.1434 -11.0352  -9.9133  -6.1120   3.3607   6.1153
     6.3206   6.4053  10.3358  10.4387

          k =-0.0730 0.0421 0.2410 (  3924 PWs)   bands (ev):

   -29.7189 -11.6955 -11.1435 -11.1182  -9.3287  -5.9989   1.9229   5.5283
     6.5786   6.6032  10.0883  10.2365

          k =-0.0730 0.0421 0.4017 (  3900 PWs)   bands (ev):

   -29.6925 -12.0505 -11.1187 -11.0926  -8.8857  -5.8800   0.8224   4.9294
     6.8100   6.8613   9.8676   9.9695

          k =-0.2189-0.5477 0.0803 (  3906 PWs)   bands (ev):

   -29.6906 -11.8608 -11.5429 -10.8865  -8.1270  -7.7435   4.1823   4.7344
     4.9016   8.3916   9.4667  12.0398

          k =-0.2189-0.5477 0.2410 (  3912 PWs)   bands (ev):

   -29.6680 -11.6767 -11.4338 -11.1008  -8.2626  -7.7452   3.3803   3.8351
     5.2587   8.2913   9.4514  11.9131

          k =-0.2189-0.5477 0.4017 (  3912 PWs)   bands (ev):

   -29.6450 -11.4666 -11.3290 -11.2991  -8.4244  -7.7538   2.7325   3.1028
     5.6220   8.2089   9.4216  11.7368

          k =-0.2189 0.2949 0.0803 (  3914 PWs)   bands (ev):

   -29.7046 -11.8972 -11.3172 -10.9143  -8.6834  -7.2313   3.7697   5.3315
     5.4563   7.5940   9.6657  11.4889

          k =-0.2189 0.2949 0.2410 (  3928 PWs)   bands (ev):

   -29.6809 -11.7301 -11.2602 -11.1691  -8.6987  -7.1510   2.8088   4.4244
     5.6889   7.5340   9.8585  11.4122

          k =-0.2189 0.2949 0.4017 (  3919 PWs)   bands (ev):

   -29.6570 -11.5625 -11.3855 -11.2018  -8.7599  -7.0531   2.0680   3.6529
     5.8537   7.4453  10.0883  11.3783

          k =-0.2189 0.1264 0.0803 (  3925 PWs)   bands (ev):

   -29.7228 -11.7539 -11.1843 -10.9548  -9.2182  -6.7256   3.5383   5.7735
     6.1638   6.7647   9.9164  10.8188

          k =-0.2189 0.1264 0.2410 (  3928 PWs)   bands (ev):

   -29.6978 -11.7007 -11.2286 -11.1558  -9.0081  -6.6134   2.3698   4.9549
     6.2456   6.9042  10.1931  10.5992

          k =-0.2189 0.1264 0.4017 (  3925 PWs)   bands (ev):

   -29.6726 -11.7795 -11.3090 -11.1268  -8.8635  -6.4723   1.4639   4.2143
     6.2387   7.0101  10.3651  10.6482

          k =-0.3649 0.2107 0.0803 (  3928 PWs)   bands (ev):

   -29.7000 -12.0275 -11.2245 -10.9050  -8.4369  -7.5236   3.8404   5.2377
     5.9883   6.6664  10.3290  11.2953

          k =-0.3649 0.2107 0.2410 (  3928 PWs)   bands (ev):

   -29.6764 -11.8157 -11.1927 -11.1540  -8.5512  -7.3859   3.0291   4.2021
     5.9064   7.0423  10.3158  11.2909

          k =-0.3649 0.2107 0.4017 (  3911 PWs)   bands (ev):

   -29.6527 -11.5609 -11.3919 -11.1604  -8.7587  -7.1893   2.3600   3.3546
     5.7896   7.3520  10.3635  11.4113

!    total energy              =    -139.63098043 Ry
     Harris-Foulkes estimate   =    -139.63098028 Ry
     estimated scf accuracy    <       0.00000079 Ry

     The total energy is the sum of the following terms:

     one-electron contribution =     -23.86834896 Ry
     hartree contribution      =      26.24177895 Ry
     xc contribution           =     -26.29637802 Ry
     ewald contribution        =    -115.70803239 Ry

     convergence has been achieved in   8 iterations

     Forces acting on atoms (Ry/au):

     atom    1 type  3   force =     0.00000000    0.00000000    0.00058058
     atom    2 type  2   force =    -0.00000000   -0.00000000   -0.17528631
     atom    3 type  2   force =    -0.00000000   -0.00000000    0.15883754
     atom    4 type  1   force =    -0.00000000   -0.00000000   -0.05154721
     atom    5 type  1   force =    -0.00000000   -0.00000000    0.06741540

     Total force =     0.251310     Total SCF correction =     0.000473


     entering subroutine stress ...

          total   stress  (Ry/bohr**3)                   (kbar)     P=  475.95
   0.00517626   0.00000000  -0.00000000        761.45      0.00     -0.00
   0.00000000   0.00517626  -0.00000000          0.00    761.45     -0.00
  -0.00000000  -0.00000000  -0.00064610         -0.00     -0.00    -95.04


     number of scf cycles    =   3
     number of bfgs steps    =   2

     enthalpy old            =    -137.8829196262 Ry
     enthalpy new            =    -138.1887177751 Ry

     CASE: enthalpy_new < enthalpy_old

     new trust radius        =       0.6853236529 bohr
     new conv_thr            =       0.0000010000 Ry

     new unit-cell volume =    216.78171 a.u.^3 (    32.12373 Ang^3 )

CELL_PARAMETERS (alat=  5.86000000)
   1.242443619  -0.000000000  -0.000000000
  -0.621221810   1.075987737  -0.000000000
   0.000000000  -0.000000000   0.805834355

ATOMIC_POSITIONS (crystal)
Ca       0.000000000   0.000000000   0.000464262
O        0.333333333   0.666666667   0.381002977
O        0.666666667   0.333333333   0.623492135
H        0.333333333   0.666666667   0.736824550
H        0.666666667   0.333333333   0.268216076



     Writing output data file CaOH2_ambient.save
     NEW-OLD atomic charge density approx. for the potential
     NEW k-points:
        k(    1) = (   0.0670721   0.1161723   0.1034125), wk =   0.0370370
        k(    2) = (   0.0670721   0.1161723   0.3102375), wk =   0.0370370
        k(    3) = (   0.0670721   0.1161723   0.5170624), wk =   0.0370370
        k(    4) = (   0.0670721   0.2710688   0.1034125), wk =   0.0370370
        k(    5) = (   0.0670721   0.2710688   0.3102375), wk =   0.0370370
        k(    6) = (   0.0670721   0.2710688   0.5170624), wk =   0.0370370
        k(    7) = (   0.0670721   0.4259652   0.1034125), wk =   0.0370370
        k(    8) = (   0.0670721   0.4259652   0.3102375), wk =   0.0370370
        k(    9) = (   0.0670721   0.4259652   0.5170624), wk =   0.0370370
        k(   10) = (   0.0670721  -0.3485170   0.1034125), wk =   0.0370370
        k(   11) = (   0.0670721  -0.3485170   0.3102375), wk =   0.0370370
        k(   12) = (   0.0670721  -0.3485170   0.5170624), wk =   0.0370370
        k(   13) = (   0.0670721  -0.1936205   0.1034125), wk =   0.0370370
        k(   14) = (   0.0670721  -0.1936205   0.3102375), wk =   0.0370370
        k(   15) = (   0.0670721  -0.1936205   0.5170624), wk =   0.0370370
        k(   16) = (   0.0670721  -0.0387241   0.1034125), wk =   0.0185185
        k(   17) = (   0.0670721  -0.0387241   0.3102375), wk =   0.0185185
        k(   18) = (   0.0670721  -0.0387241   0.5170624), wk =   0.0185185
        k(   19) = (   0.2012164   0.3485170   0.1034125), wk =   0.0370370
        k(   20) = (   0.2012164   0.3485170   0.3102375), wk =   0.0370370
        k(   21) = (   0.2012164   0.3485170   0.5170624), wk =   0.0370370
        k(   22) = (   0.2012164   0.5034134   0.1034125), wk =   0.0370370
        k(   23) = (   0.2012164   0.5034134   0.3102375), wk =   0.0370370
        k(   24) = (   0.2012164   0.5034134   0.5170624), wk =   0.0370370
        k(   25) = (   0.2012164  -0.2710688   0.1034125), wk =   0.0370370
        k(   26) = (   0.2012164  -0.2710688   0.3102375), wk =   0.0370370
        k(   27) = (   0.2012164  -0.2710688   0.5170624), wk =   0.0370370
        k(   28) = (   0.2012164  -0.1161723   0.1034125), wk =   0.0185185
        k(   29) = (   0.2012164  -0.1161723   0.3102375), wk =   0.0185185
        k(   30) = (   0.2012164  -0.1161723   0.5170624), wk =   0.0185185
        k(   31) = (   0.3353606   0.5808616   0.1034125), wk =   0.0370370
        k(   32) = (   0.3353606   0.5808616   0.3102375), wk =   0.0370370
        k(   33) = (   0.3353606   0.5808616   0.5170624), wk =   0.0370370
        k(   34) = (   0.3353606  -0.1936205   0.1034125), wk =   0.0185185
        k(   35) = (   0.3353606  -0.1936205   0.3102375), wk =   0.0185185
        k(   36) = (   0.3353606  -0.1936205   0.5170624), wk =   0.0185185
        k(   37) = (  -0.0670721  -0.2710688   0.1034125), wk =   0.0370370
        k(   38) = (  -0.0670721  -0.2710688   0.3102375), wk =   0.0370370
        k(   39) = (  -0.0670721  -0.2710688   0.5170624), wk =   0.0370370
        k(   40) = (  -0.0670721  -0.4259652   0.1034125), wk =   0.0370370
        k(   41) = (  -0.0670721  -0.4259652   0.3102375), wk =   0.0370370
        k(   42) = (  -0.0670721  -0.4259652   0.5170624), wk =   0.0370370
        k(   43) = (  -0.0670721   0.3485170   0.1034125), wk =   0.0370370
        k(   44) = (  -0.0670721   0.3485170   0.3102375), wk =   0.0370370
        k(   45) = (  -0.0670721   0.3485170   0.5170624), wk =   0.0370370
        k(   46) = (  -0.0670721   0.1936205   0.1034125), wk =   0.0370370
        k(   47) = (  -0.0670721   0.1936205   0.3102375), wk =   0.0370370
        k(   48) = (  -0.0670721   0.1936205   0.5170624), wk =   0.0370370
        k(   49) = (  -0.0670721   0.0387241   0.1034125), wk =   0.0185185
        k(   50) = (  -0.0670721   0.0387241   0.3102375), wk =   0.0185185
        k(   51) = (  -0.0670721   0.0387241   0.5170624), wk =   0.0185185
        k(   52) = (  -0.2012164  -0.5034134   0.1034125), wk =   0.0370370
        k(   53) = (  -0.2012164  -0.5034134   0.3102375), wk =   0.0370370
        k(   54) = (  -0.2012164  -0.5034134   0.5170624), wk =   0.0370370
        k(   55) = (  -0.2012164   0.2710688   0.1034125), wk =   0.0370370
        k(   56) = (  -0.2012164   0.2710688   0.3102375), wk =   0.0370370
        k(   57) = (  -0.2012164   0.2710688   0.5170624), wk =   0.0370370
        k(   58) = (  -0.2012164   0.1161723   0.1034125), wk =   0.0185185
        k(   59) = (  -0.2012164   0.1161723   0.3102375), wk =   0.0185185
        k(   60) = (  -0.2012164   0.1161723   0.5170624), wk =   0.0185185
        k(   61) = (  -0.3353606   0.1936205   0.1034125), wk =   0.0185185
        k(   62) = (  -0.3353606   0.1936205   0.3102375), wk =   0.0185185
        k(   63) = (  -0.3353606   0.1936205   0.5170624), wk =   0.0185185
     extrapolated charge   22.07624, renormalised to   24.00000

     total cpu time spent up to now is      639.7 secs

     per-process dynamical memory:    18.8 Mb

     Self-consistent Calculation

     iteration #  1     ecut=   100.00 Ry     beta=0.30
     Davidson diagonalization with overlap
     ethr =  1.00E-06,  avg # of iterations =  7.2

     total cpu time spent up to now is      666.4 secs

     total energy              =    -139.46365478 Ry
     Harris-Foulkes estimate   =    -140.79884530 Ry
     estimated scf accuracy    <       0.34158043 Ry

     iteration #  2     ecut=   100.00 Ry     beta=0.30
     Davidson diagonalization with overlap
     ethr =  1.42E-03,  avg # of iterations =  2.5

     total cpu time spent up to now is      678.7 secs

     total energy              =    -139.69083639 Ry
     Harris-Foulkes estimate   =    -139.69551228 Ry
     estimated scf accuracy    <       0.03762291 Ry

     iteration #  3     ecut=   100.00 Ry     beta=0.30
     Davidson diagonalization with overlap
     ethr =  1.57E-04,  avg # of iterations =  1.7

     total cpu time spent up to now is      686.8 secs

     total energy              =    -139.68140630 Ry
     Harris-Foulkes estimate   =    -139.69219091 Ry
     estimated scf accuracy    <       0.02221049 Ry

     iteration #  4     ecut=   100.00 Ry     beta=0.30
     Davidson diagonalization with overlap
     ethr =  9.25E-05,  avg # of iterations =  2.4

     total cpu time spent up to now is      697.2 secs

     total energy              =    -139.68738640 Ry
     Harris-Foulkes estimate   =    -139.68929243 Ry
     estimated scf accuracy    <       0.00502916 Ry

     iteration #  5     ecut=   100.00 Ry     beta=0.30
     Davidson diagonalization with overlap
     ethr =  2.10E-05,  avg # of iterations =  2.0

     total cpu time spent up to now is      706.7 secs

     total energy              =    -139.68766561 Ry
     Harris-Foulkes estimate   =    -139.68793825 Ry
     estimated scf accuracy    <       0.00052724 Ry

     iteration #  6     ecut=   100.00 Ry     beta=0.30
     Davidson diagonalization with overlap
     ethr =  2.20E-06,  avg # of iterations =  2.1

     total cpu time spent up to now is      717.2 secs

     total energy              =    -139.68780659 Ry
     Harris-Foulkes estimate   =    -139.68780700 Ry
     estimated scf accuracy    <       0.00012115 Ry

     iteration #  7     ecut=   100.00 Ry     beta=0.30
     Davidson diagonalization with overlap
     ethr =  5.05E-07,  avg # of iterations =  1.0

     total cpu time spent up to now is      724.9 secs

[...]
        k(   59) = (  -0.2185514   0.1261807   0.2897724), wk =   0.0185185
        k(   60) = (  -0.2185514   0.1261807   0.4829541), wk =   0.0185185
        k(   61) = (  -0.3642524   0.2103012   0.0965908), wk =   0.0185185
        k(   62) = (  -0.3642524   0.2103012   0.2897724), wk =   0.0185185
        k(   63) = (  -0.3642524   0.2103012   0.4829541), wk =   0.0185185

     Dense  grid:    18995 G-vectors     FFT dimensions: (  40,  40,  30)

     Largest allocated arrays     est. size (Mb)     dimensions
        Kohn-Sham Wavefunctions         0.61 Mb     (   3341,   12)
        NL pseudopotentials             0.46 Mb     (   3341,    9)
        Each V/rho on FFT grid          0.73 Mb     (  48000)
        Each G-vector array             0.14 Mb     (  18995)
        G-vector shells                 0.01 Mb     (    913)
     Largest temporary arrays     est. size (Mb)     dimensions
        Auxiliary wavefunctions         2.45 Mb     (   3341,   48)
        Each subspace H/S matrix        0.04 Mb     (  48,  48)
        Each <psi_i|beta_j> matrix      0.00 Mb     (      9,   12)
        Arrays for rho mixing          11.72 Mb     (  48000,  16)

     Initial potential from superposition of free atoms

     starting charge   21.99998, renormalised to   24.00000
     Starting wfc are   14 randomized atomic wfcs

     Writing output data file CaOH2_ambient.save

     total cpu time spent up to now is     3626.8 secs

     per-process dynamical memory:    16.2 Mb

     Self-consistent Calculation

     iteration #  1     ecut=   100.00 Ry     beta=0.30
     Davidson diagonalization with overlap
     ethr =  1.00E-06,  avg # of iterations =  5.9

     total cpu time spent up to now is     3649.5 secs

     total energy              =    -139.86227904 Ry
     Harris-Foulkes estimate   =    -139.94194070 Ry
     estimated scf accuracy    <       0.45707920 Ry

     iteration #  2     ecut=   100.00 Ry     beta=0.30
     Davidson diagonalization with overlap
     ethr =  1.90E-03,  avg # of iterations =  1.0

     total cpu time spent up to now is     3656.2 secs

     total energy              =    -139.67364676 Ry
     Harris-Foulkes estimate   =    -139.86577840 Ry
     estimated scf accuracy    <       0.29516606 Ry

     iteration #  3     ecut=   100.00 Ry     beta=0.30
     Davidson diagonalization with overlap
     ethr =  1.23E-03,  avg # of iterations =  2.0

     total cpu time spent up to now is     3665.2 secs

     total energy              =    -139.72325332 Ry
     Harris-Foulkes estimate   =    -139.72694673 Ry
     estimated scf accuracy    <       0.01590067 Ry

     iteration #  4     ecut=   100.00 Ry     beta=0.30
     Davidson diagonalization with overlap
     ethr =  6.63E-05,  avg # of iterations =  1.4

     total cpu time spent up to now is     3671.9 secs

     total energy              =    -139.72227382 Ry
     Harris-Foulkes estimate   =    -139.72399616 Ry
     estimated scf accuracy    <       0.00332901 Ry

     iteration #  5     ecut=   100.00 Ry     beta=0.30
     Davidson diagonalization with overlap
     ethr =  1.39E-05,  avg # of iterations =  2.0

     total cpu time spent up to now is     3680.4 secs

     total energy              =    -139.72265385 Ry
     Harris-Foulkes estimate   =    -139.72274683 Ry
     estimated scf accuracy    <       0.00066254 Ry

     iteration #  6     ecut=   100.00 Ry     beta=0.30
     Davidson diagonalization with overlap
     ethr =  2.76E-06,  avg # of iterations =  1.0

     total cpu time spent up to now is     3687.1 secs

     total energy              =    -139.72252428 Ry
     Harris-Foulkes estimate   =    -139.72267062 Ry
     estimated scf accuracy    <       0.00033483 Ry

     iteration #  7     ecut=   100.00 Ry     beta=0.30
     Davidson diagonalization with overlap
     ethr =  1.40E-06,  avg # of iterations =  2.1

     total cpu time spent up to now is     3695.8 secs

     total energy              =    -139.72263770 Ry
     Harris-Foulkes estimate   =    -139.72263990 Ry
     estimated scf accuracy    <       0.00005659 Ry

     iteration #  8     ecut=   100.00 Ry     beta=0.30
     Davidson diagonalization with overlap
     ethr =  2.36E-07,  avg # of iterations =  1.0

     total cpu time spent up to now is     3702.4 secs

     total energy              =    -139.72261567 Ry
     Harris-Foulkes estimate   =    -139.72263848 Ry
     estimated scf accuracy    <       0.00004908 Ry

     iteration #  9     ecut=   100.00 Ry     beta=0.30
     Davidson diagonalization with overlap
     ethr =  2.05E-07,  avg # of iterations =  2.0

     total cpu time spent up to now is     3711.1 secs

     total energy              =    -139.72262363 Ry
     Harris-Foulkes estimate   =    -139.72262376 Ry
     estimated scf accuracy    <       0.00000041 Ry

     iteration # 10     ecut=   100.00 Ry     beta=0.30
     Davidson diagonalization with overlap
     ethr =  1.70E-09,  avg # of iterations =  3.0

     total cpu time spent up to now is     3721.2 secs

     total energy              =    -139.72262378 Ry
     Harris-Foulkes estimate   =    -139.72262381 Ry
     estimated scf accuracy    <       0.00000015 Ry

     iteration # 11     ecut=   100.00 Ry     beta=0.30
     Davidson diagonalization with overlap
     ethr =  6.43E-10,  avg # of iterations =  2.0

     total cpu time spent up to now is     3729.8 secs

     End of self-consistent calculation

          k = 0.0729 0.1262 0.0966 (  3325 PWs)   bands (ev):

   -26.6251  -9.2018  -7.9570  -7.7027  -6.9787  -5.1187   7.0421   7.6109
     8.0318   8.6821  11.4076  11.9390

          k = 0.0729 0.1262 0.2898 (  3332 PWs)   bands (ev):

   -26.4590  -9.3443  -8.1686  -7.8109  -6.5317  -4.8797   4.6813   6.9278
     8.1045   8.7665  10.8908  11.7603

          k = 0.0729 0.1262 0.4830 (  3332 PWs)   bands (ev):

   -26.2848  -9.9712  -7.9277  -7.6681  -6.0610  -4.7151   3.0308   5.2811
     8.9146   9.7087  10.1086  11.0831

          k = 0.0729 0.2944 0.0966 (  3319 PWs)   bands (ev):

   -26.5842  -9.8141  -8.1459  -7.6169  -6.2640  -5.3375   7.1499   7.8787
     8.2648   9.0557  10.8764  12.0615

          k = 0.0729 0.2944 0.2898 (  3320 PWs)   bands (ev):

   -26.4231  -9.3827  -8.5515  -7.9286  -6.1834  -4.9522   4.8028   6.3537
     8.0861   9.5112  11.1973  11.9639

          k = 0.0729 0.2944 0.4830 (  3324 PWs)   bands (ev):

   -26.2544  -9.6222  -8.4697  -7.7599  -6.2079  -4.6284   3.2554   4.6333
     8.5802   9.8172  11.1816  11.4949

          k = 0.0729 0.4627 0.0966 (  3305 PWs)   bands (ev):

   -26.5540 -10.1157  -8.2841  -7.5260  -6.3235  -5.0372   7.3614   7.9617
     8.0669   9.1589  11.2143  12.0275

          k = 0.0729 0.4627 0.2898 (  3324 PWs)   bands (ev):

   -26.3966  -9.5613  -8.4941  -8.0367  -6.1490  -4.9902   5.2428   5.9076
     8.2430   9.5987  11.4656  11.8696

          k = 0.0729 0.4627 0.4830 (  3334 PWs)   bands (ev):

   -26.2320  -9.3177  -8.7848  -7.8396  -6.2981  -4.7915   3.6706   4.2228
     8.5122  10.2342  11.3537  11.4739

          k = 0.0729-0.3785 0.0966 (  3308 PWs)   bands (ev):

   -26.5651 -10.0333  -8.2195  -7.5221  -6.1763  -5.3310   7.5597   7.8784
     8.2650   9.1107  10.8950  11.8002

          k = 0.0729-0.3785 0.2898 (  3323 PWs)   bands (ev):

   -26.4063  -9.5790  -8.3918  -8.0146  -5.7960  -5.4382   5.3688   5.9914
     8.4850   9.6333  11.0421  11.4235

          k = 0.0729-0.3785 0.4830 (  3323 PWs)   bands (ev):

   -26.2402  -9.4875  -8.6152  -7.8105  -6.1305  -4.9074   3.7116   4.2553
     8.7792  10.0186  11.0821  11.3118

          k = 0.0729-0.2103 0.0966 (  3318 PWs)   bands (ev):

   -26.6062  -9.5525  -8.0364  -7.6233  -6.5108  -5.3677   7.1848   7.8074
     8.4400   8.6026  11.0614  11.8038

          k = 0.0729-0.2103 0.2898 (  3326 PWs)   bands (ev):

   -26.4424  -9.3990  -8.3302  -7.8693  -6.1692  -5.1336   4.8339   6.6520
     8.3489   9.0701  10.8074  11.6630

          k = 0.0729-0.2103 0.4830 (  3324 PWs)   bands (ev):

   -26.2707  -9.8316  -8.1829  -7.7103  -6.0339  -4.7622   3.1803   4.9389
     9.0872   9.4509  10.4372  11.3580

          k = 0.0729-0.0421 0.0966 (  3339 PWs)   bands (ev):

   -26.6360  -8.8977  -7.9157  -7.7911  -7.3043  -4.9648   6.9907   7.4894
     7.7337   8.7534  11.6476  12.0099

          k = 0.0729-0.0421 0.2898 (  3318 PWs)   bands (ev):

   -26.4686  -9.3366  -7.9671  -7.7827  -6.7996  -4.7582   4.6362   7.1192
     8.0008   8.4859  11.0525  11.6660

          k = 0.0729-0.0421 0.4830 (  3341 PWs)   bands (ev):

   -26.2929 -10.0494  -7.7500  -7.6467  -6.0849  -4.7248   2.9797   5.5063
     8.9262   9.6372  10.0987  10.7829

          k = 0.2186 0.3785 0.0966 (  3321 PWs)   bands (ev):

   -26.5541  -9.8852  -8.8278  -7.5100  -5.6048  -5.4210   7.1601   7.7200
     8.0434   9.9266  10.6055  12.3618

          k = 0.2186 0.3785 0.2898 (  3318 PWs)   bands (ev):

   -26.3967  -9.3936  -8.5508  -8.3398  -5.7040  -5.2413   5.3142   5.9252
     8.0208  10.0406  11.0420  11.8859

          k = 0.2186 0.3785 0.4830 (  3327 PWs)   bands (ev):

   -26.2320  -9.3371  -8.6209  -8.1007  -5.9715  -5.0459   3.7801   4.2158
     8.9194   9.9886  11.0628  11.3642

          k = 0.2186 0.5468 0.0966 (  3311 PWs)   bands (ev):

   -26.5460  -9.8077  -9.1003  -7.4951  -5.5721  -5.2698   7.0524   7.7202
     7.9364  10.1350  10.6353  12.5202

          k = 0.2186 0.5468 0.2898 (  3323 PWs)   bands (ev):

   -26.3896  -9.3146  -8.7068  -8.3837  -5.5787  -5.2943   5.5536   5.7323
     7.8756  10.3059  10.8839  11.9830

          k = 0.2186 0.5468 0.4830 (  3337 PWs)   bands (ev):

   -26.2260  -9.2430  -8.6176  -8.2533  -5.8263  -5.2459   4.0053   4.0602
     8.9311  10.3145  10.9511  11.1477

          k = 0.2186-0.2944 0.0966 (  3318 PWs)   bands (ev):

   -26.5681  -9.8983  -8.4688  -7.5468  -5.9155  -5.4007   7.1900   7.8332
     8.1546   9.4829  10.7152  12.1732

          k = 0.2186-0.2944 0.2898 (  3322 PWs)   bands (ev):

   -26.4090  -9.4180  -8.5352  -8.1290  -5.9548  -5.0895   5.0298   6.1441
     8.1279   9.7079  11.2349  11.8416

          k = 0.2186-0.2944 0.4830 (  3326 PWs)   bands (ev):

   -26.2424  -9.4754  -8.5774  -7.9093  -6.1242  -4.8012   3.4960   4.4150
     8.7685   9.8128  11.1741  11.5172

          k = 0.2186-0.1262 0.0966 (  3319 PWs)   bands (ev):

   -26.5982  -9.6627  -7.9887  -7.6896  -6.4773  -5.2954   7.0907   7.7866
     8.3876   8.7899  10.9679  12.0613

          k = 0.2186-0.1262 0.2898 (  3327 PWs)   bands (ev):

   -26.4354  -9.3399  -8.5138  -7.8448  -6.3017  -4.8954   4.6938   6.5320
     8.0048   9.4038  11.0405  12.0309

          k = 0.2186-0.1262 0.4830 (  3322 PWs)   bands (ev):

   -26.2647  -9.7455  -8.3221  -7.6983  -6.1976  -4.5816   3.1256   4.8300
     8.5401   9.8266  11.0230  11.3629

          k = 0.3643 0.6309 0.0966 (  3316 PWs)   bands (ev):

   -26.5489 -10.0003  -8.7142  -7.5012  -5.9378  -5.1162   7.2445   7.7623
     7.9874   9.6873  10.9130  12.3149

          k = 0.3643 0.6309 0.2898 (  3318 PWs)   bands (ev):

   -26.3921  -9.4736  -8.5017  -8.3009  -5.8513  -5.1413   5.4635   5.7733
     8.0669   9.9455  11.1436  11.9276

          k = 0.3643 0.6309 0.4830 (  3337 PWs)   bands (ev):

   -26.2282  -9.2761  -8.7202  -8.0456  -6.0696  -5.0167   3.8814   4.1123
     8.7508  10.2676  11.1553  11.2693

          k = 0.3643-0.2103 0.0966 (  3305 PWs)   bands (ev):

   -26.5599 -10.1115  -8.0611  -7.5760  -6.4794  -5.0478   7.3443   8.0079
     8.2019   8.9065  11.3507  11.8754

          k = 0.3643-0.2103 0.2898 (  3332 PWs)   bands (ev):

   -26.4018  -9.5491  -8.5302  -7.9081  -6.2827  -4.9047   5.0578   6.0238
     8.2444   9.4844  11.6271  11.8773

          k = 0.3643-0.2103 0.4830 (  3330 PWs)   bands (ev):

   -26.2364  -9.3680  -8.7732  -7.7503  -6.3780  -4.6704   3.5110   4.3224
     8.4074  10.1583  11.4716  11.5642

          k =-0.0729-0.2944 0.0966 (  3319 PWs)   bands (ev):

   -26.5842  -9.8401  -8.1310  -7.5635  -6.1488  -5.5276   7.3766   7.9295
     8.4019   8.9262  10.8034  11.7492

          k =-0.0729-0.2944 0.2898 (  3320 PWs)   bands (ev):

   -26.4231  -9.4954  -8.3867  -7.9438  -5.8061  -5.4517   5.0843   6.3319
     8.5110   9.3892  10.8882  11.4474

          k =-0.0729-0.2944 0.4830 (  3324 PWs)   bands (ev):

   -26.2544  -9.6581  -8.4272  -7.7620  -6.0514  -4.8496   3.4291   4.5762
     9.0156   9.5912  10.7890  11.4217

          k =-0.0729-0.4627 0.0966 (  3305 PWs)   bands (ev):

   -26.5540 -10.1247  -8.2772  -7.5078  -6.2951  -5.0971   7.5347   7.8675
     8.1438   9.1453  11.1294  11.9272

          k =-0.0729-0.4627 0.2898 (  3324 PWs)   bands (ev):

   -26.3966  -9.6046  -8.4200  -8.0505  -6.0254  -5.1690   5.5095   5.7609
     8.3635   9.6567  11.2489  11.6618

          k =-0.0729-0.4627 0.4830 (  3334 PWs)   bands (ev):

   -26.2320  -9.3574  -8.7400  -7.8406  -6.2354  -4.8838   3.8460   4.0980
     8.6041  10.3053  11.1944  11.3481

          k =-0.0729 0.3785 0.0966 (  3308 PWs)   bands (ev):

   -26.5651 -10.0106  -8.2354  -7.5679  -6.2699  -5.1634   7.2394   7.9971
     8.0718   9.1715  11.0686  12.0616

          k =-0.0729 0.3785 0.2898 (  3323 PWs)   bands (ev):

   -26.4064  -9.4700  -8.5636  -7.9907  -6.1779  -4.9278   4.9772   6.1063
     8.1506   9.5687  11.4770  11.9516

          k =-0.0729 0.3785 0.4830 (  3323 PWs)   bands (ev):

   -26.2402  -9.4257  -8.6869  -7.8083  -6.2835  -4.6852   3.4546   4.3928
     8.5062  10.0201  11.3796  11.5658

          k =-0.0729 0.2103 0.0966 (  3318 PWs)   bands (ev):

   -26.6062  -9.5354  -8.0431  -7.6619  -6.5310  -5.3041   7.0821   7.7263
     8.4867   8.6333  11.0007  12.0224

          k =-0.0729 0.2103 0.2898 (  3326 PWs)   bands (ev):

   -26.4424  -9.3460  -8.4071  -7.8637  -6.2839  -4.9599   4.7178   6.6467
     8.0626   9.2666  10.9009  11.9000

          k =-0.0729 0.2103 0.4830 (  3324 PWs)   bands (ev):

   -26.2707  -9.8203  -8.1956  -7.7089  -6.1156  -4.6511   3.1122   4.9501
     8.7229   9.7029  10.7056  11.3172

          k =-0.0729 0.0421 0.0966 (  3339 PWs)   bands (ev):

   -26.6360  -8.9059  -7.9168  -7.7633  -7.3187  -4.9713   7.0150   7.5856
     7.6183   8.7610  11.7925  11.8424

          k =-0.0729 0.0421 0.2898 (  3318 PWs)   bands (ev):

   -26.4686  -9.3436  -7.9538  -7.7851  -6.7906  -4.7777   4.6532   7.1160
     8.1764   8.3207  11.0601  11.6164

          k =-0.0729 0.0421 0.4830 (  3341 PWs)   bands (ev):

   -26.2929 -10.0505  -7.7486  -7.6479  -6.0692  -4.7442   2.9889   5.5062
     9.0582   9.5227  10.0157  10.8313

          k =-0.2186-0.5468 0.0966 (  3311 PWs)   bands (ev):

   -26.5460  -9.8043  -9.1041  -7.4962  -5.5965  -5.2414   7.0237   7.7700
     7.8988  10.1072  10.6711  12.5357

          k =-0.2186-0.5468 0.2898 (  3323 PWs)   bands (ev):

   -26.3896  -9.2968  -8.7392  -8.3715  -5.6377  -5.2270   5.4802   5.7865
     7.8654  10.2508  10.9573  12.0136

          k =-0.2186-0.5468 0.4830 (  3337 PWs)   bands (ev):

   -26.2260  -9.2352  -8.6302  -8.2493  -5.8495  -5.2180   3.9330   4.1249
     8.9082  10.3007  11.0249  11.1288

          k =-0.2186 0.2944 0.0966 (  3318 PWs)   bands (ev):

   -26.5681  -9.9105  -8.4559  -7.5334  -5.7750  -5.5706   7.3452   7.7444
     8.2337   9.5085  10.6097  12.0626

          k =-0.2186 0.2944 0.2898 (  3322 PWs)   bands (ev):

   -26.4090  -9.4751  -8.4232  -8.1673  -5.7366  -5.3635   5.1864   6.1078
     8.2580   9.7638  11.0316  11.6150

          k =-0.2186 0.2944 0.4830 (  3326 PWs)   bands (ev):

   -26.2424  -9.4994  -8.5470  -7.9119  -6.0480  -4.9078   3.5966   4.3663
     8.9580   9.7152  11.0622  11.4178

          k =-0.2186 0.1262 0.0966 (  3319 PWs)   bands (ev):

   -26.5982  -9.6952  -7.9909  -7.5952  -6.4127  -5.4546   7.3109   8.0133
     8.3941   8.6002  11.0643  11.5880

          k =-0.2186 0.1262 0.2898 (  3327 PWs)   bands (ev):

   -26.4354  -9.4612  -8.3473  -7.8495  -5.9916  -5.3389   4.9705   6.5356
     8.6896   8.9678  10.7793  11.4847

          k =-0.2186 0.1262 0.4830 (  3322 PWs)   bands (ev):

   -26.2647  -9.7752  -8.2885  -7.7007  -6.0198  -4.8277   3.2915   4.7933
     9.1449   9.4914  10.4363  11.4100

          k =-0.3643 0.2103 0.0966 (  3305 PWs)   bands (ev):

   -26.5599 -10.1299  -8.0622  -7.5132  -6.4320  -5.1714   7.5780   8.1399
     8.3377   8.6972  11.2280  11.6142

          k =-0.3643 0.2103 0.2898 (  3332 PWs)   bands (ev):

   -26.4018  -9.6373  -8.4032  -7.9103  -6.0224  -5.2843   5.4956   5.8432
     8.5718   9.5146  11.2690  11.3501

          k =-0.3643 0.2103 0.4830 (  3330 PWs)   bands (ev):

   -26.2364  -9.4373  -8.6960  -7.7515  -6.2491  -4.8626   3.8001   4.1437
     8.6019  10.2781  11.2158  11.2408

!    total energy              =    -139.72262380 Ry
     Harris-Foulkes estimate   =    -139.72262380 Ry
     estimated scf accuracy    <          8.8E-09 Ry

     The total energy is the sum of the following terms:

     one-electron contribution =     -12.00141752 Ry
     hartree contribution      =      22.50152401 Ry
     xc contribution           =     -26.66092750 Ry
     ewald contribution        =    -123.56180278 Ry

     convergence has been achieved in  11 iterations

     Forces acting on atoms (Ry/au):

     atom    1 type  3   force =    -0.00000000   -0.00000000    0.00010833
     atom    2 type  2   force =    -0.00000000   -0.00000000   -0.00062131
     atom    3 type  2   force =    -0.00000000   -0.00000000    0.00036269
     atom    4 type  1   force =    -0.00000000    0.00000000    0.00033926
     atom    5 type  1   force =     0.00000000   -0.00000000   -0.00018897

     Total force =     0.000825     Total SCF correction =     0.000060


     entering subroutine stress ...

          total   stress  (Ry/bohr**3)                   (kbar)     P=  948.08
   0.00661415  -0.00000000   0.00000000        972.97     -0.00      0.00
  -0.00000000   0.00661415   0.00000000         -0.00    972.97      0.00
   0.00000000  -0.00000000   0.00610649          0.00     -0.00    898.30


     Writing output data file CaOH2_ambient.save

     init_run     :     42.26s CPU     43.02s WALL (       2 calls)
     electrons    :   1900.62s CPU   1937.91s WALL (      23 calls)
     update_pot   :    806.84s CPU    811.36s WALL (      21 calls)
     forces       :    290.46s CPU    291.28s WALL (      23 calls)
     stress       :    645.56s CPU    646.96s WALL (      23 calls)

     Called by init_run:
     wfcinit      :      9.28s CPU      9.72s WALL (       2 calls)
     potinit      :     13.72s CPU     13.82s WALL (       2 calls)

     Called by electrons:
     c_bands      :   1631.07s CPU   1660.43s WALL (     183 calls)
     sum_band     :    239.21s CPU    245.32s WALL (     183 calls)
     v_of_rho     :     17.53s CPU     17.91s WALL (     203 calls)
     mix_rho      :     13.85s CPU     14.45s WALL (     183 calls)

     Called by c_bands:
     init_us_2    :     67.79s CPU     73.91s WALL (   26082 calls)
     cegterg      :   1593.45s CPU   1602.02s WALL (   11529 calls)

     Called by *egterg:
     h_psi        :   1162.33s CPU   1167.08s WALL (   38501 calls)
     g_psi        :     14.68s CPU     14.89s WALL (   26846 calls)
     cdiaghg      :     19.01s CPU     19.21s WALL (   36863 calls)

     Called by h_psi:
     add_vuspsi   :     39.31s CPU     39.36s WALL (   38501 calls)

     General routines
     calbec       :     43.75s CPU     43.95s WALL (   41399 calls)
     fft          :      4.46s CPU      4.45s WALL (    2421 calls)
     ffts         :      5.72s CPU      5.71s WALL (    3133 calls)
     fftw         :   1116.66s CPU   1120.99s WALL (  908830 calls)
     davcio       :      9.06s CPU     28.73s WALL (   37611 calls)


     PWSCF        :     1h 1m CPU        1h 2m WALL


   This run was terminated on:   5:24:34  22Apr2014            

=------------------------------------------------------------------------------=
   JOB DONE.
=------------------------------------------------------------------------------=
