
     Program PWSCF v.5.0.2 (svn rev. 9392) starts on 22Apr2014 at  5:24:34 

     This program is part of the open-source Quantum ESPRESSO suite
     for quantum simulation of materials; please cite
         "P. Giannozzi et al., J. Phys.:Condens. Matter 21 395502 (2009);
          URL http://www.quantum-espresso.org", 
     in publications or presentations arising from this work. More details at
     http://www.quantum-espresso.org/quote.php

     Serial version

     Current dimensions of program PWSCF are:
     Max number of different atomic species (ntypx) = 10
     Max number of k-points (npk) =  40000
     Max angular momentum in pseudopotentials (lmaxx) =  3
     Waiting for input...
     Reading input from standard input

     G-vector sticks info
     --------------------
     sticks:   dense  smooth     PW     G-vecs:    dense   smooth      PW
     Sum         757     757    283                22473    22473    5157



     bravais-lattice index     =            4
     lattice parameter (alat)  =       5.8600  a.u.
     unit-cell volume          =     232.1281 (a.u.)^3
     number of atoms/cell      =            5
     number of atomic types    =            3
     number of electrons       =        24.00
     number of Kohn-Sham states=           12
     kinetic-energy cutoff     =     100.0000  Ry
     charge density cutoff     =     320.0000  Ry
     convergence threshold     =      1.0E-06
     mixing beta               =       0.3000
     number of iterations used =           16  local-TF  mixing
     Exchange-correlation      = PBE ( 1 4 3 4 0)
     EXX-fraction              =        0.00
     nstep                     =           50


     celldm(1)=   5.860000  celldm(2)=   0.000000  celldm(3)=   1.332000
     celldm(4)=   0.000000  celldm(5)=   0.000000  celldm(6)=   0.000000

     crystal axes: (cart. coord. in units of alat)
               a(1) = (   1.000000   0.000000   0.000000 )  
               a(2) = (  -0.500000   0.866025   0.000000 )  
               a(3) = (   0.000000   0.000000   1.332000 )  

     reciprocal axes: (cart. coord. in units 2 pi/alat)
               b(1) = (  1.000000  0.577350 -0.000000 )  
               b(2) = (  0.000000  1.154701  0.000000 )  
               b(3) = (  0.000000 -0.000000  0.750751 )  


     PseudoPot. # 1 for H  read from file:
     /home/ilia/espresso/pseudo/H.pbe-sp-mt.ncpp
     MD5 check sum: 7a641936b52ccecd26bd1ad87cca5aed
     Pseudo is Norm-conserving, Zval =  1.0
     Generated by old ld1 code (numerical format)
     Using radial grid of 1076 points,  0 beta functions with: 

     PseudoPot. # 2 for O  read from file:
     /home/ilia/espresso/pseudo/O.pbe-sp-mt.ncpp
     MD5 check sum: 8a3d23d410d2f3ebfd0a39faacc72cbb
     Pseudo is Norm-conserving, Zval =  6.0
     Generated by old ld1 code (numerical format)
     Using radial grid of 1130 points,  1 beta functions with: 
                l(1) =   1

     PseudoPot. # 3 for Ca read from file:
     /home/ilia/espresso/pseudo/Ca.pbe-sp-mt_ion2.ncpp
     MD5 check sum: 4bcd670d05521f7b178fdf0a334578ab
     Pseudo is Norm-conserving, Zval = 10.0
     Generated by old ld1 code (numerical format)
     Using radial grid of 1153 points,  1 beta functions with: 
                l(1) =   1

     atomic species   valence    mass     pseudopotential
        H              1.00     1.00700     H ( 1.00)
        O              6.00    16.00000     O ( 1.00)
        Ca            10.00    40.07800     Ca( 1.00)

      6 Sym. Ops. (no inversion) found



   Cartesian axes

     site n.     atom                  positions (alat units)
         1           Ca  tau(   1) = (   0.0000000   0.0000000   0.0000000  )
         2           O   tau(   2) = (   0.0000000   0.5773503   0.6287040  )
         3           O   tau(   3) = (   0.5000000   0.2886751   0.7166160  )
         4           H   tau(   4) = (   0.0000000   0.5773503   0.9430560  )
         5           H   tau(   5) = (   0.5000000   0.2886751   0.3889440  )

     number of k points=    63
                       cart. coord. in units 2pi/alat
        k(    1) = (   0.0833333   0.1443376   0.0625626), wk =   0.0370370
        k(    2) = (   0.0833333   0.1443376   0.1876877), wk =   0.0370370
        k(    3) = (   0.0833333   0.1443376   0.3128128), wk =   0.0370370
        k(    4) = (   0.0833333   0.3367877   0.0625626), wk =   0.0370370
        k(    5) = (   0.0833333   0.3367877   0.1876877), wk =   0.0370370
        k(    6) = (   0.0833333   0.3367877   0.3128128), wk =   0.0370370
        k(    7) = (   0.0833333   0.5292377   0.0625626), wk =   0.0370370
        k(    8) = (   0.0833333   0.5292377   0.1876877), wk =   0.0370370
        k(    9) = (   0.0833333   0.5292377   0.3128128), wk =   0.0370370
        k(   10) = (   0.0833333  -0.4330127   0.0625626), wk =   0.0370370
        k(   11) = (   0.0833333  -0.4330127   0.1876877), wk =   0.0370370
        k(   12) = (   0.0833333  -0.4330127   0.3128128), wk =   0.0370370
        k(   13) = (   0.0833333  -0.2405626   0.0625626), wk =   0.0370370
        k(   14) = (   0.0833333  -0.2405626   0.1876877), wk =   0.0370370
        k(   15) = (   0.0833333  -0.2405626   0.3128128), wk =   0.0370370
        k(   16) = (   0.0833333  -0.0481125   0.0625626), wk =   0.0185185
        k(   17) = (   0.0833333  -0.0481125   0.1876877), wk =   0.0185185
        k(   18) = (   0.0833333  -0.0481125   0.3128128), wk =   0.0185185
        k(   19) = (   0.2500000   0.4330127   0.0625626), wk =   0.0370370
        k(   20) = (   0.2500000   0.4330127   0.1876877), wk =   0.0370370
        k(   21) = (   0.2500000   0.4330127   0.3128128), wk =   0.0370370
        k(   22) = (   0.2500000   0.6254628   0.0625626), wk =   0.0370370
        k(   23) = (   0.2500000   0.6254628   0.1876877), wk =   0.0370370
        k(   24) = (   0.2500000   0.6254628   0.3128128), wk =   0.0370370
        k(   25) = (   0.2500000  -0.3367877   0.0625626), wk =   0.0370370
        k(   26) = (   0.2500000  -0.3367877   0.1876877), wk =   0.0370370
        k(   27) = (   0.2500000  -0.3367877   0.3128128), wk =   0.0370370
        k(   28) = (   0.2500000  -0.1443376   0.0625626), wk =   0.0185185
        k(   29) = (   0.2500000  -0.1443376   0.1876877), wk =   0.0185185
        k(   30) = (   0.2500000  -0.1443376   0.3128128), wk =   0.0185185
        k(   31) = (   0.4166667   0.7216878   0.0625626), wk =   0.0370370
        k(   32) = (   0.4166667   0.7216878   0.1876877), wk =   0.0370370
        k(   33) = (   0.4166667   0.7216878   0.3128128), wk =   0.0370370
        k(   34) = (   0.4166667  -0.2405626   0.0625626), wk =   0.0185185
        k(   35) = (   0.4166667  -0.2405626   0.1876877), wk =   0.0185185
        k(   36) = (   0.4166667  -0.2405626   0.3128128), wk =   0.0185185
        k(   37) = (  -0.0833333  -0.3367877   0.0625626), wk =   0.0370370
        k(   38) = (  -0.0833333  -0.3367877   0.1876877), wk =   0.0370370
        k(   39) = (  -0.0833333  -0.3367877   0.3128128), wk =   0.0370370
        k(   40) = (  -0.0833333  -0.5292377   0.0625626), wk =   0.0370370
        k(   41) = (  -0.0833333  -0.5292377   0.1876877), wk =   0.0370370
        k(   42) = (  -0.0833333  -0.5292377   0.3128128), wk =   0.0370370
        k(   43) = (  -0.0833333   0.4330127   0.0625626), wk =   0.0370370
        k(   44) = (  -0.0833333   0.4330127   0.1876877), wk =   0.0370370
        k(   45) = (  -0.0833333   0.4330127   0.3128128), wk =   0.0370370
        k(   46) = (  -0.0833333   0.2405626   0.0625626), wk =   0.0370370
        k(   47) = (  -0.0833333   0.2405626   0.1876877), wk =   0.0370370
        k(   48) = (  -0.0833333   0.2405626   0.3128128), wk =   0.0370370
        k(   49) = (  -0.0833333   0.0481125   0.0625626), wk =   0.0185185
        k(   50) = (  -0.0833333   0.0481125   0.1876877), wk =   0.0185185
        k(   51) = (  -0.0833333   0.0481125   0.3128128), wk =   0.0185185
        k(   52) = (  -0.2500000  -0.6254628   0.0625626), wk =   0.0370370
        k(   53) = (  -0.2500000  -0.6254628   0.1876877), wk =   0.0370370
        k(   54) = (  -0.2500000  -0.6254628   0.3128128), wk =   0.0370370
        k(   55) = (  -0.2500000   0.3367877   0.0625626), wk =   0.0370370
        k(   56) = (  -0.2500000   0.3367877   0.1876877), wk =   0.0370370
        k(   57) = (  -0.2500000   0.3367877   0.3128128), wk =   0.0370370
        k(   58) = (  -0.2500000   0.1443376   0.0625626), wk =   0.0185185
        k(   59) = (  -0.2500000   0.1443376   0.1876877), wk =   0.0185185
        k(   60) = (  -0.2500000   0.1443376   0.3128128), wk =   0.0185185
        k(   61) = (  -0.4166667   0.2405626   0.0625626), wk =   0.0185185
        k(   62) = (  -0.4166667   0.2405626   0.1876877), wk =   0.0185185
        k(   63) = (  -0.4166667   0.2405626   0.3128128), wk =   0.0185185

     Dense  grid:    22473 G-vectors     FFT dimensions: (  36,  36,  45)

     Largest allocated arrays     est. size (Mb)     dimensions
        Kohn-Sham Wavefunctions         0.72 Mb     (   3953,   12)
        NL pseudopotentials             0.54 Mb     (   3953,    9)
        Each V/rho on FFT grid          0.89 Mb     (  58320)
        Each G-vector array             0.17 Mb     (  22473)
        G-vector shells                 0.17 Mb     (  22473)
     Largest temporary arrays     est. size (Mb)     dimensions
        Auxiliary wavefunctions         2.90 Mb     (   3953,   48)
        Each subspace H/S matrix        0.04 Mb     (  48,  48)
        Each <psi_i|beta_j> matrix      0.00 Mb     (      9,   12)
        Arrays for rho mixing          14.24 Mb     (  58320,  16)

     Initial potential from superposition of free atoms

     starting charge   21.99998, renormalised to   24.00000
     Starting wfc are   14 randomized atomic wfcs

     total cpu time spent up to now is       34.2 secs

     per-process dynamical memory:    13.9 Mb

     Self-consistent Calculation

     iteration #  1     ecut=   100.00 Ry     beta=0.30
     Davidson diagonalization with overlap
     ethr =  1.00E-02,  avg # of iterations =  2.3

     total cpu time spent up to now is       45.4 secs

     total energy              =    -138.94986530 Ry
     Harris-Foulkes estimate   =    -139.04185099 Ry
     estimated scf accuracy    <       0.52656765 Ry

     iteration #  2     ecut=   100.00 Ry     beta=0.30
     Davidson diagonalization with overlap
     ethr =  2.19E-03,  avg # of iterations =  3.4

     total cpu time spent up to now is       54.2 secs

     total energy              =    -139.16707973 Ry
     Harris-Foulkes estimate   =    -139.21614704 Ry
     estimated scf accuracy    <       0.52852567 Ry

     iteration #  3     ecut=   100.00 Ry     beta=0.30
     Davidson diagonalization with overlap
     ethr =  2.19E-03,  avg # of iterations =  1.4

     total cpu time spent up to now is       62.2 secs

     total energy              =    -138.93257457 Ry
     Harris-Foulkes estimate   =    -139.19847496 Ry
     estimated scf accuracy    <       0.48983518 Ry

     iteration #  4     ecut=   100.00 Ry     beta=0.30
     Davidson diagonalization with overlap
     ethr =  2.04E-03,  avg # of iterations =  2.5

     total cpu time spent up to now is       73.0 secs

     total energy              =    -139.03303640 Ry
     Harris-Foulkes estimate   =    -139.05289624 Ry
     estimated scf accuracy    <       0.04652802 Ry

     iteration #  5     ecut=   100.00 Ry     beta=0.30
     Davidson diagonalization with overlap
     ethr =  1.94E-04,  avg # of iterations =  2.6

     total cpu time spent up to now is       82.9 secs

     total energy              =    -139.04848140 Ry
     Harris-Foulkes estimate   =    -139.05377528 Ry
     estimated scf accuracy    <       0.01521435 Ry

     iteration #  6     ecut=   100.00 Ry     beta=0.30
     Davidson diagonalization with overlap
     ethr =  6.34E-05,  avg # of iterations =  2.9

     total cpu time spent up to now is       92.3 secs

     total energy              =    -139.05410698 Ry
     Harris-Foulkes estimate   =    -139.05502653 Ry
     estimated scf accuracy    <       0.00495159 Ry

     iteration #  7     ecut=   100.00 Ry     beta=0.30
     Davidson diagonalization with overlap
     ethr =  2.06E-05,  avg # of iterations =  2.0

     total cpu time spent up to now is      100.4 secs

     total energy              =    -139.05276980 Ry
     Harris-Foulkes estimate   =    -139.05440544 Ry
     estimated scf accuracy    <       0.00330165 Ry

     iteration #  8     ecut=   100.00 Ry     beta=0.30
     Davidson diagonalization with overlap
     ethr =  1.38E-05,  avg # of iterations =  3.5

     total cpu time spent up to now is      111.0 secs

     total energy              =    -139.05378810 Ry
     Harris-Foulkes estimate   =    -139.05482205 Ry
     estimated scf accuracy    <       0.00301019 Ry

     iteration #  9     ecut=   100.00 Ry     beta=0.30
     Davidson diagonalization with overlap
     ethr =  1.25E-05,  avg # of iterations =  2.8

     total cpu time spent up to now is      119.8 secs

     total energy              =    -139.05432975 Ry
     Harris-Foulkes estimate   =    -139.05434863 Ry
     estimated scf accuracy    <       0.00006492 Ry

     iteration # 10     ecut=   100.00 Ry     beta=0.30
     Davidson diagonalization with overlap
     ethr =  2.71E-07,  avg # of iterations =  5.3

     total cpu time spent up to now is      131.2 secs

     total energy              =    -139.05436204 Ry
     Harris-Foulkes estimate   =    -139.05436828 Ry
     estimated scf accuracy    <       0.00001823 Ry

     iteration # 11     ecut=   100.00 Ry     beta=0.30
     Davidson diagonalization with overlap
     ethr =  7.60E-08,  avg # of iterations =  2.8

     total cpu time spent up to now is      140.7 secs

     End of self-consistent calculation

          k = 0.0833 0.1443 0.0626 (  3927 PWs)   bands (ev):

   -29.3065 -11.9448 -10.7842 -10.3875 -10.3814  -4.8109   1.6824   5.3356
     6.0939   6.7102   9.7753  11.2718

          k = 0.0833 0.1443 0.1877 (  3931 PWs)   bands (ev):

   -29.3037 -12.2622 -10.5966 -10.3789 -10.1716  -4.8068   1.2689   5.3442
     6.0915   6.5933  10.9252  11.2793

          k = 0.0833 0.1443 0.3128 (  3917 PWs)   bands (ev):

   -29.3009 -12.4859 -10.5501 -10.3762  -9.9047  -4.8034   0.8988   5.3499
     6.0895   6.4778  11.2853  11.8914

          k = 0.0833 0.3368 0.0626 (  3923 PWs)   bands (ev):

   -29.2216 -11.7017 -10.7547 -10.5165 -10.1887  -6.2830   2.0591   4.5550
     5.7297   6.7941  11.2887  11.3788

          k = 0.0833 0.3368 0.1877 (  3919 PWs)   bands (ev):

   -29.2195 -11.7296 -10.9121 -10.5085  -9.9998  -6.2883   1.9193   4.5578
     5.5550   6.7891  11.4212  12.3060

          k = 0.0833 0.3368 0.3128 (  3914 PWs)   bands (ev):

   -29.2175 -11.7531 -11.0089 -10.5019  -9.8880  -6.2723   1.7832   4.5554
     5.3814   6.7971  11.4938  13.1490

          k = 0.0833 0.5292 0.0626 (  3919 PWs)   bands (ev):

   -29.1582 -11.7369 -10.6366 -10.6126  -9.4840  -7.7022   2.5785   4.0813
     4.7383   6.9209  11.9974  12.6306

          k = 0.0833 0.5292 0.1877 (  3926 PWs)   bands (ev):

   -29.1568 -11.5974 -10.7154 -10.6023  -9.6665  -7.6513   2.7145   4.0716
     4.4801   6.9920  11.9894  13.5303

          k = 0.0833 0.5292 0.3128 (  3917 PWs)   bands (ev):

   -29.1553 -11.4073 -10.8078 -10.5939  -9.8945  -7.5848   2.8400   4.0788
     4.2287   7.0793  11.9568  13.9193

          k = 0.0833-0.4330 0.0626 (  3917 PWs)   bands (ev):

   -29.1815 -11.6915 -10.6918 -10.5768  -9.8818  -7.0657   2.3323   4.2575
     5.1291   6.9239  11.6562  12.0655

          k = 0.0833-0.4330 0.1877 (  3915 PWs)   bands (ev):

   -29.1798 -11.5544 -10.8855 -10.5666  -9.8926  -7.0380   2.3332   4.2696
     4.8978   6.9819  11.6637  12.7287

          k = 0.0833-0.4330 0.3128 (  3914 PWs)   bands (ev):

   -29.1782 -11.3378 -11.1390 -10.5591  -9.9057  -7.0315   2.3399   4.2636
     4.7228   7.0157  11.7231  13.5944

          k = 0.0833-0.2406 0.0626 (  3935 PWs)   bands (ev):

   -29.2673 -11.7901 -10.7942 -10.4438 -10.3592  -5.4681   1.8239   4.9533
     6.2691   6.5160  10.4391  11.1818

          k = 0.0833-0.2406 0.1877 (  3920 PWs)   bands (ev):

   -29.2649 -11.9999 -10.7912 -10.4388 -10.1081  -5.4582   1.5304   4.9596
     6.1153   6.5010  11.2294  11.4822

          k = 0.0833-0.2406 0.3128 (  3930 PWs)   bands (ev):

   -29.2624 -12.1706 -10.7784 -10.4345  -9.9003  -5.4569   1.2715   4.9539
     5.9764   6.4790  11.3118  12.4818

          k = 0.0833-0.0481 0.0626 (  3953 PWs)   bands (ev):

   -29.3290 -12.0448 -10.7871 -10.3609 -10.3483  -4.4288   1.6159   5.5654
     5.8178   6.9353   9.4089  11.3991

          k = 0.0833-0.0481 0.1877 (  3924 PWs)   bands (ev):

   -29.3260 -12.4038 -10.4571 -10.3463 -10.2231  -4.4290   1.1314   5.5796
     5.8352   6.8475  10.6134  11.3396

          k = 0.0833-0.0481 0.3128 (  3900 PWs)   bands (ev):

   -29.3229 -12.6492 -10.4099 -10.3443  -9.9108  -4.4293   0.7000   5.5985
     5.8498   6.7550  11.2984  11.5311

          k = 0.2500 0.4330 0.0626 (  3913 PWs)   bands (ev):

   -29.1584 -11.5559 -10.8465 -10.6361  -9.5530  -7.5439   2.6546   3.4239
     4.6260   8.4050  10.8672  12.8549

          k = 0.2500 0.4330 0.1877 (  3920 PWs)   bands (ev):

   -29.1569 -11.4345 -10.8209 -10.7352  -9.6327  -7.5916   2.6670   3.5394
     4.5223   8.3610  10.9049  13.4666

          k = 0.2500 0.4330 0.3128 (  3907 PWs)   bands (ev):

   -29.1554 -11.2503 -10.9170 -10.7687  -9.7181  -7.6402   2.7097   3.6197
     4.4267   8.3134  10.9451  14.0922

          k = 0.2500 0.6255 0.0626 (  3906 PWs)   bands (ev):

   -29.1413 -11.4742 -10.9999 -10.6028  -9.1325  -8.0972   3.0105   3.1615
     4.1134   8.9325  10.7029  13.3216

          k = 0.2500 0.6255 0.1877 (  3912 PWs)   bands (ev):

   -29.1400 -11.3612 -10.9528 -10.6469  -9.2886  -8.1648   3.0677   3.2988
     4.0456   8.9069  10.6878  13.8630

          k = 0.2500 0.6255 0.3128 (  3912 PWs)   bands (ev):

   -29.1387 -11.2271 -10.9005 -10.6994  -9.4556  -8.2385   3.1595   3.4011
     3.9838   8.8735  10.6722  14.3085

          k = 0.2500-0.3368 0.0626 (  3914 PWs)   bands (ev):

   -29.1878 -11.6356 -10.6977 -10.6595  -9.9326  -6.9011   2.3088   3.9319
     5.2155   7.5948  11.1081  12.0963

          k = 0.2500-0.3368 0.1877 (  3928 PWs)   bands (ev):

   -29.1861 -11.5519 -10.8721 -10.6430  -9.8741  -6.9217   2.2563   3.9944
     5.0650   7.5572  11.1923  12.9033

          k = 0.2500-0.3368 0.3128 (  3919 PWs)   bands (ev):

   -29.1843 -11.4117 -11.0778 -10.6256  -9.8500  -6.9311   2.2192   4.0364
     4.9174   7.5299  11.2616  13.6878

          k = 0.2500-0.1443 0.0626 (  3925 PWs)   bands (ev):

   -29.2506 -11.7608 -10.7820 -10.4454 -10.3218  -5.7749   1.9053   4.9753
     6.0849   6.3897  10.7694  11.3525

          k = 0.2500-0.1443 0.1877 (  3928 PWs)   bands (ev):

   -29.2483 -11.9080 -10.8538 -10.4424 -10.0669  -5.7766   1.6776   4.9471
     5.9225   6.3999  11.4310  11.8214

          k = 0.2500-0.1443 0.3128 (  3925 PWs)   bands (ev):

   -29.2460 -12.0291 -10.8807 -10.4394  -9.8944  -5.7568   1.4562   4.9248
     5.7589   6.4149  11.5071  12.6873

          k = 0.4167 0.7217 0.0626 (  3910 PWs)   bands (ev):

   -29.1475 -11.6283 -10.7957 -10.6126  -9.2744  -7.9510   2.8051   3.4930
     4.4047   7.9450  11.4193  12.9971

          k = 0.4167 0.7217 0.1877 (  3917 PWs)   bands (ev):

   -29.1461 -11.4979 -10.7735 -10.6588  -9.4757  -7.9430   2.9346   3.5629
     4.2296   7.9582  11.3994  13.6690

          k = 0.4167 0.7217 0.3128 (  3925 PWs)   bands (ev):

   -29.1448 -11.3385 -10.7456 -10.7098  -9.7037  -7.9370   3.0615   3.6550
     4.0443   7.9771  11.3705  14.1511

          k = 0.4167-0.2406 0.0626 (  3928 PWs)   bands (ev):

   -29.1707 -11.7582 -10.6600 -10.5406  -9.6962  -7.3916   2.4233   4.5059
     4.9907   6.4139  12.1258  12.3638

          k = 0.4167-0.2406 0.1877 (  3928 PWs)   bands (ev):

   -29.1691 -11.6250 -10.7891 -10.5365  -9.7861  -7.3523   2.5078   4.4523
     4.7130   6.5288  12.1552  13.3854

          k = 0.4167-0.2406 0.3128 (  3911 PWs)   bands (ev):

   -29.1675 -11.4118 -10.9705 -10.5325  -9.9275  -7.2804   2.5718   4.4015
     4.4702   6.6552  12.1361  13.6943

          k =-0.0833-0.3368 0.0626 (  3923 PWs)   bands (ev):

   -29.2216 -11.6856 -10.7691 -10.5157 -10.2028  -6.2637   2.0481   4.5626
     5.7084   6.8141  11.2061  11.3862

          k =-0.0833-0.3368 0.1877 (  3919 PWs)   bands (ev):

   -29.2195 -11.6952 -10.9446 -10.5078 -10.0257  -6.2494   1.8988   4.5714
     5.5164   6.8281  11.3592  12.1313

          k =-0.0833-0.3368 0.3128 (  3914 PWs)   bands (ev):

   -29.2175 -11.7358 -11.0257 -10.5016  -9.9005  -6.2527   1.7735   4.5615
     5.3637   6.8161  11.4668  13.1055

          k =-0.0833-0.5292 0.0626 (  3919 PWs)   bands (ev):

   -29.1582 -11.7316 -10.6410 -10.6090  -9.5029  -7.6848   2.5744   4.0885
     4.7256   6.9293  11.9820  12.5380

          k =-0.0833-0.5292 0.1877 (  3926 PWs)   bands (ev):

   -29.1568 -11.5827 -10.7240 -10.5997  -9.6997  -7.6209   2.7086   4.0891
     4.4497   7.0103  11.9484  13.1988

          k =-0.0833-0.5292 0.3128 (  3917 PWs)   bands (ev):

   -29.1553 -11.3949 -10.8172 -10.5927  -9.9093  -7.5714   2.8387   4.0988
     4.2008   7.0892  11.9336  13.8609

          k =-0.0833 0.4330 0.0626 (  3917 PWs)   bands (ev):

   -29.1815 -11.7060 -10.6837 -10.5789  -9.8538  -7.0926   2.3423   4.2469
     5.1536   6.9033  11.6952  12.1807

          k =-0.0833 0.4330 0.1877 (  3915 PWs)   bands (ev):

   -29.1798 -11.5966 -10.8521 -10.5686  -9.8447  -7.0896   2.3501   4.2493
     4.9469   6.9385  11.7494  13.1385

          k =-0.0833 0.4330 0.3128 (  3914 PWs)   bands (ev):

   -29.1782 -11.3974 -11.0819 -10.5599  -9.8848  -7.0562   2.3469   4.2534
     4.7480   6.9931  11.7677  13.6589

          k =-0.0833 0.2406 0.0626 (  3935 PWs)   bands (ev):

   -29.2673 -11.7971 -10.7852 -10.4440 -10.3570  -5.4763   1.8303   4.9491
     6.2772   6.5104  10.4561  11.1775

          k =-0.0833 0.2406 0.1877 (  3920 PWs)   bands (ev):

   -29.2649 -12.0093 -10.7815 -10.4388 -10.1001  -5.4752   1.5427   4.9518
     6.1303   6.4893  11.2419  11.5203

          k =-0.0833 0.2406 0.3128 (  3930 PWs)   bands (ev):

   -29.2624 -12.1742 -10.7750 -10.4346  -9.8958  -5.4656   1.2776   4.9502
     5.9831   6.4736  11.3123  12.5076

          k =-0.0833 0.0481 0.0626 (  3953 PWs)   bands (ev):

   -29.3290 -12.0440 -10.7883 -10.3609 -10.3483  -4.4275   1.6145   5.5698
     5.8154   6.9328   9.4082  11.4206

          k =-0.0833 0.0481 0.1877 (  3924 PWs)   bands (ev):

   -29.3260 -12.4030 -10.4579 -10.3463 -10.2241  -4.4261   1.1286   5.5887
     5.8296   6.8439  10.6103  11.3814

          k =-0.0833 0.0481 0.3128 (  3900 PWs)   bands (ev):

   -29.3229 -12.6489 -10.4100 -10.3443  -9.9115  -4.4278   0.6986   5.6031
     5.8467   6.7536  11.3202  11.5063

          k =-0.2500-0.6255 0.0626 (  3906 PWs)   bands (ev):

   -29.1413 -11.4760 -10.9984 -10.6031  -9.1279  -8.1017   3.0309   3.1380
     4.1179   8.9285  10.7084  13.3947

          k =-0.2500-0.6255 0.1877 (  3912 PWs)   bands (ev):

   -29.1400 -11.3660 -10.9482 -10.6480  -9.2798  -8.1732   3.0897   3.2694
     4.0558   8.8983  10.6999  14.0879

          k =-0.2500-0.6255 0.3128 (  3912 PWs)   bands (ev):

   -29.1387 -11.2308 -10.8960 -10.7009  -9.4514  -8.2424   3.1681   3.3876
     3.9900   8.8689  10.6787  14.3220

          k =-0.2500 0.3368 0.0626 (  3914 PWs)   bands (ev):

   -29.1878 -11.6279 -10.7129 -10.6493  -9.9427  -6.8903   2.3031   3.9389
     5.2038   7.6068  11.0876  12.0504

          k =-0.2500 0.3368 0.1877 (  3928 PWs)   bands (ev):

   -29.1861 -11.5305 -10.8948 -10.6386  -9.8918  -6.9005   2.2468   4.0067
     5.0424   7.5812  11.1519  12.7455

          k =-0.2500 0.3368 0.3128 (  3919 PWs)   bands (ev):

   -29.1843 -11.3890 -11.1009 -10.6243  -9.8582  -6.9207   2.2152   4.0419
     4.9064   7.5419  11.2416  13.6523

          k =-0.2500 0.1443 0.0626 (  3925 PWs)   bands (ev):

   -29.2506 -11.7439 -10.8002 -10.4455 -10.3306  -5.7556   1.8922   4.9813
     6.0699   6.4024  10.7229  11.3554

          k =-0.2500 0.1443 0.1877 (  3928 PWs)   bands (ev):

   -29.2483 -11.8817 -10.8793 -10.4425 -10.0885  -5.7370   1.6520   4.9589
     5.8904   6.4303  11.3875  11.7101

          k =-0.2500 0.1443 0.3128 (  3925 PWs)   bands (ev):

   -29.2460 -12.0184 -10.8906 -10.4394  -9.9057  -5.7366   1.4436   4.9306
     5.7437   6.4301  11.4976  12.6341

          k =-0.4167 0.2406 0.0626 (  3928 PWs)   bands (ev):

   -29.1707 -11.7467 -10.6615 -10.5406  -9.7289  -7.3622   2.4163   4.5081
     4.9739   6.4302  12.1032  12.2191

          k =-0.4167 0.2406 0.1877 (  3928 PWs)   bands (ev):

   -29.1691 -11.5921 -10.8066 -10.5366  -9.8426  -7.2981   2.4972   4.4566
     4.6772   6.5649  12.0703  12.8893

          k =-0.4167 0.2406 0.3128 (  3911 PWs)   bands (ev):

   -29.1675 -11.3767 -11.0001 -10.5326  -9.9515  -7.2555   2.5684   4.4037
     4.4510   6.6746  12.0898  13.6639

!    total energy              =    -139.05436489 Ry
     Harris-Foulkes estimate   =    -139.05436488 Ry
     estimated scf accuracy    <       0.00000049 Ry

     The total energy is the sum of the following terms:

     one-electron contribution =     -26.00484305 Ry
     hartree contribution      =      27.36434796 Ry
     xc contribution           =     -26.16570877 Ry
     ewald contribution        =    -114.24816104 Ry

     convergence has been achieved in  11 iterations

     Forces acting on atoms (Ry/au):

     atom    1 type  3   force =     0.00000000    0.00000000    0.00149915
     atom    2 type  2   force =     0.00000000   -0.00000000   -0.19004282
     atom    3 type  2   force =     0.00000000    0.00000000    0.17721185
     atom    4 type  1   force =     0.00000000    0.00000000    0.05072111
     atom    5 type  1   force =     0.00000000    0.00000000   -0.03938929

     Total force =     0.267669     Total SCF correction =     0.000970


     entering subroutine stress ...

          total   stress  (Ry/bohr**3)                   (kbar)     P=  943.94
   0.00867294  -0.00000000   0.00000000       1275.83     -0.00      0.00
  -0.00000000   0.00867294   0.00000000         -0.00   1275.83      0.00
   0.00000000  -0.00000000   0.00190454          0.00     -0.00    280.17


     BFGS Geometry Optimization

     number of scf cycles    =   1
     number of bfgs steps    =   0

     enthalpy new            =    -136.2140099419 Ry

     new trust radius        =       0.5000000000 bohr
     new conv_thr            =       0.0000010000 Ry

     new unit-cell volume =    172.69833 a.u.^3 (    25.59125 Ang^3 )

CELL_PARAMETERS (alat=  5.86000000)
   0.943408687  -0.000000000   0.000000000
  -0.471704343   0.817015889  -0.000000000
   0.000000000   0.000000000   1.113435116

ATOMIC_POSITIONS (crystal)
Ca       0.000000000   0.000000000   0.000122014
O        0.333333333   0.666666667   0.456532592
O        0.666666667   0.333333333   0.552423107
H        0.333333333   0.666666667   0.712128144
H        0.666666667   0.333333333   0.288794143



     Writing output data file CaOH2_ambient.save
     NEW-OLD atomic charge density approx. for the potential
     NEW k-points:
        k(    1) = (   0.0883322   0.1529958   0.0748435), wk =   0.0370370
        k(    2) = (   0.0883322   0.1529958   0.2245304), wk =   0.0370370
        k(    3) = (   0.0883322   0.1529958   0.3742173), wk =   0.0370370
        k(    4) = (   0.0883322   0.3569902   0.0748435), wk =   0.0370370
        k(    5) = (   0.0883322   0.3569902   0.2245304), wk =   0.0370370
        k(    6) = (   0.0883322   0.3569902   0.3742173), wk =   0.0370370
        k(    7) = (   0.0883322   0.5609846   0.0748435), wk =   0.0370370
        k(    8) = (   0.0883322   0.5609846   0.2245304), wk =   0.0370370
        k(    9) = (   0.0883322   0.5609846   0.3742173), wk =   0.0370370
        k(   10) = (   0.0883322  -0.4589874   0.0748435), wk =   0.0370370
        k(   11) = (   0.0883322  -0.4589874   0.2245304), wk =   0.0370370
        k(   12) = (   0.0883322  -0.4589874   0.3742173), wk =   0.0370370
        k(   13) = (   0.0883322  -0.2549930   0.0748435), wk =   0.0370370
        k(   14) = (   0.0883322  -0.2549930   0.2245304), wk =   0.0370370
        k(   15) = (   0.0883322  -0.2549930   0.3742173), wk =   0.0370370
        k(   16) = (   0.0883322  -0.0509986   0.0748435), wk =   0.0185185
        k(   17) = (   0.0883322  -0.0509986   0.2245304), wk =   0.0185185
        k(   18) = (   0.0883322  -0.0509986   0.3742173), wk =   0.0185185
        k(   19) = (   0.2649965   0.4589874   0.0748435), wk =   0.0370370
        k(   20) = (   0.2649965   0.4589874   0.2245304), wk =   0.0370370
        k(   21) = (   0.2649965   0.4589874   0.3742173), wk =   0.0370370
        k(   22) = (   0.2649965   0.6629818   0.0748435), wk =   0.0370370
        k(   23) = (   0.2649965   0.6629818   0.2245304), wk =   0.0370370
        k(   24) = (   0.2649965   0.6629818   0.3742173), wk =   0.0370370
        k(   25) = (   0.2649965  -0.3569902   0.0748435), wk =   0.0370370
        k(   26) = (   0.2649965  -0.3569902   0.2245304), wk =   0.0370370
        k(   27) = (   0.2649965  -0.3569902   0.3742173), wk =   0.0370370
        k(   28) = (   0.2649965  -0.1529958   0.0748435), wk =   0.0185185
        k(   29) = (   0.2649965  -0.1529958   0.2245304), wk =   0.0185185
        k(   30) = (   0.2649965  -0.1529958   0.3742173), wk =   0.0185185
        k(   31) = (   0.4416608   0.7649790   0.0748435), wk =   0.0370370
        k(   32) = (   0.4416608   0.7649790   0.2245304), wk =   0.0370370
        k(   33) = (   0.4416608   0.7649790   0.3742173), wk =   0.0370370
        k(   34) = (   0.4416608  -0.2549930   0.0748435), wk =   0.0185185
        k(   35) = (   0.4416608  -0.2549930   0.2245304), wk =   0.0185185
        k(   36) = (   0.4416608  -0.2549930   0.3742173), wk =   0.0185185
        k(   37) = (  -0.0883322  -0.3569902   0.0748435), wk =   0.0370370
        k(   38) = (  -0.0883322  -0.3569902   0.2245304), wk =   0.0370370
        k(   39) = (  -0.0883322  -0.3569902   0.3742173), wk =   0.0370370
        k(   40) = (  -0.0883322  -0.5609846   0.0748435), wk =   0.0370370
        k(   41) = (  -0.0883322  -0.5609846   0.2245304), wk =   0.0370370
        k(   42) = (  -0.0883322  -0.5609846   0.3742173), wk =   0.0370370
        k(   43) = (  -0.0883322   0.4589874   0.0748435), wk =   0.0370370
        k(   44) = (  -0.0883322   0.4589874   0.2245304), wk =   0.0370370
        k(   45) = (  -0.0883322   0.4589874   0.3742173), wk =   0.0370370
        k(   46) = (  -0.0883322   0.2549930   0.0748435), wk =   0.0370370
        k(   47) = (  -0.0883322   0.2549930   0.2245304), wk =   0.0370370
        k(   48) = (  -0.0883322   0.2549930   0.3742173), wk =   0.0370370
        k(   49) = (  -0.0883322   0.0509986   0.0748435), wk =   0.0185185
        k(   50) = (  -0.0883322   0.0509986   0.2245304), wk =   0.0185185
        k(   51) = (  -0.0883322   0.0509986   0.3742173), wk =   0.0185185
        k(   52) = (  -0.2649965  -0.6629818   0.0748435), wk =   0.0370370
        k(   53) = (  -0.2649965  -0.6629818   0.2245304), wk =   0.0370370
        k(   54) = (  -0.2649965  -0.6629818   0.3742173), wk =   0.0370370
        k(   55) = (  -0.2649965   0.3569902   0.0748435), wk =   0.0370370
        k(   56) = (  -0.2649965   0.3569902   0.2245304), wk =   0.0370370
        k(   57) = (  -0.2649965   0.3569902   0.3742173), wk =   0.0370370
        k(   58) = (  -0.2649965   0.1529958   0.0748435), wk =   0.0185185
        k(   59) = (  -0.2649965   0.1529958   0.2245304), wk =   0.0185185
        k(   60) = (  -0.2649965   0.1529958   0.3742173), wk =   0.0185185
        k(   61) = (  -0.4416608   0.2549930   0.0748435), wk =   0.0185185
        k(   62) = (  -0.4416608   0.2549930   0.2245304), wk =   0.0185185
        k(   63) = (  -0.4416608   0.2549930   0.3742173), wk =   0.0185185
     extrapolated charge   16.42926, renormalised to   24.00000

     total cpu time spent up to now is      221.6 secs

     per-process dynamical memory:    18.8 Mb

     Self-consistent Calculation

     iteration #  1     ecut=   100.00 Ry     beta=0.30
     Davidson diagonalization with overlap
     ethr =  1.00E-06,  avg # of iterations =  8.7

     total cpu time spent up to now is      247.7 secs

     total energy              =    -136.79605570 Ry
     Harris-Foulkes estimate   =    -143.51281557 Ry
     estimated scf accuracy    <       8.20119880 Ry

     iteration #  2     ecut=   100.00 Ry     beta=0.30
     Davidson diagonalization with overlap
     ethr =  1.00E-02,  avg # of iterations =  2.9

     total cpu time spent up to now is      260.4 secs

     total energy              =    -138.65544127 Ry
     Harris-Foulkes estimate   =    -138.87711966 Ry
     estimated scf accuracy    <       0.92599930 Ry

     iteration #  3     ecut=   100.00 Ry     beta=0.30
     Davidson diagonalization with overlap
     ethr =  3.86E-03,  avg # of iterations =  1.5

     total cpu time spent up to now is      268.3 secs

     total energy              =    -138.55902727 Ry
     Harris-Foulkes estimate   =    -138.69832391 Ry
     estimated scf accuracy    <       0.28881953 Ry

     iteration #  4     ecut=   100.00 Ry     beta=0.30
     Davidson diagonalization with overlap
     ethr =  1.20E-03,  avg # of iterations =  3.5

     total cpu time spent up to now is      279.1 secs

     total energy              =    -138.81433825 Ry
     Harris-Foulkes estimate   =    -138.72245681 Ry
     estimated scf accuracy    <       0.30863011 Ry

     iteration #  5     ecut=   100.00 Ry     beta=0.30
     Davidson diagonalization with overlap
     ethr =  1.20E-03,  avg # of iterations =  2.1

     total cpu time spent up to now is      287.3 secs

     total energy              =    -138.51028653 Ry
     Harris-Foulkes estimate   =    -138.83618593 Ry
     estimated scf accuracy    <       0.81432741 Ry

     iteration #  6     ecut=   100.00 Ry     beta=0.30
     Davidson diagonalization with overlap
     ethr =  1.20E-03,  avg # of iterations =  3.5

     total cpu time spent up to now is      298.3 secs

     total energy              =    -138.64645185 Ry
     Harris-Foulkes estimate   =    -138.64691163 Ry
     estimated scf accuracy    <       0.00304336 Ry

     iteration #  7     ecut=   100.00 Ry     beta=0.30
     Davidson diagonalization with overlap
     ethr =  1.27E-05,  avg # of iterations =  3.4

     total cpu time spent up to now is      308.3 secs

     total energy              =    -138.65366257 Ry
     Harris-Foulkes estimate   =    -138.65734361 Ry
     estimated scf accuracy    <       0.01503934 Ry

     iteration #  8     ecut=   100.00 Ry     beta=0.30
     Davidson diagonalization with overlap
     ethr =  1.27E-05,  avg # of iterations =  3.1

     total cpu time spent up to now is      318.6 secs

     total energy              =    -138.65387558 Ry
     Harris-Foulkes estimate   =    -138.65472018 Ry
     estimated scf accuracy    <       0.00173752 Ry

     iteration #  9     ecut=   100.00 Ry     beta=0.30
     Davidson diagonalization with overlap
     ethr =  7.24E-06,  avg # of iterations =  3.5

     total cpu time spent up to now is      329.7 secs

     total energy              =    -138.65459611 Ry
     Harris-Foulkes estimate   =    -138.65506985 Ry
     estimated scf accuracy    <       0.00367651 Ry

     iteration # 10     ecut=   100.00 Ry     beta=0.30
     Davidson diagonalization with overlap
     ethr =  7.24E-06,  avg # of iterations =  1.7

     total cpu time spent up to now is      337.8 secs

     total energy              =    -138.65443712 Ry
     Harris-Foulkes estimate   =    -138.65466678 Ry
     estimated scf accuracy    <       0.00152585 Ry

     iteration # 11     ecut=   100.00 Ry     beta=0.30
     Davidson diagonalization with overlap
     ethr =  6.36E-06,  avg # of iterations =  1.6

     total cpu time spent up to now is      345.8 secs

     total energy              =    -138.65436993 Ry
     Harris-Foulkes estimate   =    -138.65449549 Ry
     estimated scf accuracy    <       0.00046162 Ry

     iteration # 12     ecut=   100.00 Ry     beta=0.30
     Davidson diagonalization with overlap
     ethr =  1.92E-06,  avg # of iterations =  2.7

     total cpu time spent up to now is      354.5 secs

     End of self-consistent calculation

          k = 0.0883 0.1530 0.0748 (  3927 PWs)   bands (ev):

   -24.4411  -9.3042  -5.9840  -5.2950  -5.2633  -0.6337   5.8897   9.0482
    10.1169  10.9889  15.4167  16.1064

          k = 0.0883 0.1530 0.2245 (  3931 PWs)   bands (ev):

   -24.4106  -9.7950  -5.7332  -5.2720  -4.8383  -0.6076   5.1520   9.0773
    10.0999  10.6449  15.8509  16.6959

          k = 0.0883 0.1530 0.3742 (  3917 PWs)   bands (ev):

   -24.3798 -10.1905  -5.6185  -5.2490  -4.3494  -0.5885   4.4994   9.0896
    10.0848  10.3139  15.8931  16.4814

          k = 0.0883 0.3570 0.0748 (  3923 PWs)   bands (ev):

   -24.2498  -9.0202  -5.8898  -5.6093  -5.1664  -2.4554   5.9604   8.2292
     9.7761  11.1176  16.0089  17.5634

          k = 0.0883 0.3570 0.2245 (  3919 PWs)   bands (ev):

   -24.2273  -9.0792  -6.3052  -5.5360  -4.7776  -2.5203   5.8274   8.2181
     9.2685  11.0718  16.3294  18.3372

          k = 0.0883 0.3570 0.3742 (  3914 PWs)   bands (ev):

   -24.2046  -9.1465  -6.4847  -5.4768  -4.7081  -2.4526   5.6457   8.1597
     8.9104  11.0775  16.5831  18.2693

          k = 0.0883 0.5610 0.0748 (  3919 PWs)   bands (ev):

   -24.1039  -8.8500  -5.9275  -5.5755  -4.7065  -4.0700   6.1574   7.7188
     8.7283  11.1954  17.2167  18.0490

          k = 0.0883 0.5610 0.2245 (  3926 PWs)   bands (ev):

   -24.0877  -8.4648  -6.1745  -5.7229  -5.2963  -3.8038   6.6227   7.6073
     8.1370  11.3890  17.2700  19.1771

          k = 0.0883 0.5610 0.3742 (  3917 PWs)   bands (ev):

   -24.0714  -7.7662  -6.7044  -6.1247  -5.6201  -3.5372   6.9334   7.5221
     7.6957  11.6517  17.2306  19.3153

          k = 0.0883-0.4590 0.0748 (  3917 PWs)   bands (ev):

   -24.1579  -8.8843  -5.9540  -5.6425  -5.0403  -3.2353   5.9446   7.9448
     9.1852  11.2849  16.6198  17.8290

          k = 0.0883-0.4590 0.2245 (  3915 PWs)   bands (ev):

   -24.1394  -8.6269  -6.5336  -5.6352  -4.9917  -3.1821   6.0137   7.9365
     8.6987  11.4530  16.7547  18.6306

          k = 0.0883-0.4590 0.3742 (  3914 PWs)   bands (ev):

   -24.1207  -8.3446  -6.9056  -5.5754  -5.2401  -3.1341   6.1835   7.8428
     8.2851  11.5265  16.9161  18.8292

          k = 0.0883-0.2550 0.0748 (  3935 PWs)   bands (ev):

   -24.3534  -9.1585  -5.9858  -5.4301  -5.2555  -1.4555   5.8337   8.6701
    10.4721  10.7849  15.6926  16.5088

          k = 0.0883-0.2550 0.2245 (  3920 PWs)   bands (ev):

   -24.3266  -9.4682  -6.0946  -5.3910  -4.7915  -1.4188   5.3237   8.6828
    10.0635  10.7169  15.9753  17.3185

          k = 0.0883-0.2550 0.3742 (  3930 PWs)   bands (ev):

   -24.2995  -9.7567  -6.0635  -5.3542  -4.4753  -1.4167   4.9508   8.6283
     9.6722  10.6216  16.1784  17.2679

          k = 0.0883-0.0510 0.0748 (  3953 PWs)   bands (ev):

   -24.4909  -9.3883  -5.9948  -5.2322  -5.2258  -0.1146   5.9393   9.2630
     9.6505  11.2609  15.0579  16.1572

          k = 0.0883-0.0510 0.2245 (  3924 PWs)   bands (ev):

   -24.4584  -9.9662  -5.4585  -5.2086  -4.9312  -0.1049   5.0554   9.3137
     9.7176  10.9842  15.8221  16.9087

          k = 0.0883-0.0510 0.3742 (  3900 PWs)   bands (ev):

   -24.4255 -10.4104  -5.3350  -5.1919  -4.3046  -0.1065   4.2548   9.3916
     9.7690  10.7044  15.7115  16.0028

          k = 0.2650 0.4590 0.0748 (  3913 PWs)   bands (ev):

   -24.1049  -8.5806  -6.6207  -5.5928  -4.7689  -3.4648   6.2699   6.9269
     8.4785  13.0804  15.6955  19.0711

          k = 0.2650 0.4590 0.2245 (  3920 PWs)   bands (ev):

   -24.0886  -8.2860  -6.4090  -6.0726  -4.9146  -3.7706   6.3369   7.3168
     8.2278  12.9753  15.8731  19.4545

          k = 0.2650 0.4590 0.3742 (  3907 PWs)   bands (ev):

   -24.0721  -7.8361  -6.6986  -6.0403  -5.1481  -4.1520   6.6199   7.4616
     8.0279  12.8334  16.0245  19.4675

          k = 0.2650 0.6630 0.0748 (  3906 PWs)   bands (ev):

   -24.0654  -8.3020  -7.0988  -5.4861  -4.4907  -3.8624   6.4451   6.7374
     7.8932  13.6421  15.6417  19.1493

          k = 0.2650 0.6630 0.2245 (  3912 PWs)   bands (ev):

   -24.0507  -7.9168  -6.8310  -5.7775  -5.0278  -4.2315   6.6863   7.0823
     7.7785  13.6139  15.6708  19.7942

          k = 0.2650 0.6630 0.3742 (  3912 PWs)   bands (ev):

   -24.0359  -7.2184  -6.5902  -6.1483  -5.6433  -4.7099   7.0624   7.2938
     7.6702  13.5304  15.6665  19.7320

          k = 0.2650-0.3570 0.0748 (  3914 PWs)   bands (ev):

   -24.1726  -8.8418  -6.0550  -5.7538  -4.9924  -2.9969   6.0601   7.5051
     9.1719  12.1134  15.8773  18.2802

          k = 0.2650-0.3570 0.2245 (  3928 PWs)   bands (ev):

   -24.1534  -8.7094  -6.2867  -5.9012  -4.8291  -3.1581   6.0440   7.7160
     8.7574  11.9974  16.1600  18.9192

          k = 0.2650-0.3570 0.3742 (  3919 PWs)   bands (ev):

   -24.1341  -8.5553  -6.6540  -5.7353  -4.9082  -3.2736   6.1232   7.7622
     8.4472  11.9049  16.3868  18.9607

          k = 0.2650-0.1530 0.0748 (  3925 PWs)   bands (ev):

   -24.3157  -9.1235  -5.9420  -5.4057  -5.2788  -1.8914   5.9295   8.6965
    10.1891  10.6115  15.8848  17.0383

          k = 0.2650-0.1530 0.2245 (  3928 PWs)   bands (ev):

   -24.2904  -9.3464  -6.1902  -5.3797  -4.7666  -1.9223   5.6314   8.5790
     9.7138  10.5955  16.2082  18.5200

          k = 0.2650-0.1530 0.3742 (  3925 PWs)   bands (ev):

   -24.2650  -9.5556  -6.2464  -5.3543  -4.5458  -1.8253   5.2544   8.4950
     9.3523  10.6234  16.4833  17.6509

          k = 0.4417 0.7650 0.0748 (  3910 PWs)   bands (ev):

   -24.0794  -8.6118  -6.5427  -5.5139  -4.5596  -3.9828   6.3603   6.9895
     8.3086  12.4346  16.5270  18.4807

          k = 0.4417 0.7650 0.2245 (  3917 PWs)   bands (ev):

   -24.0642  -8.2013  -6.4281  -5.7757  -5.2723  -3.9838   6.7527   7.1262
     7.9695  12.4946  16.5416  19.4511

          k = 0.4417 0.7650 0.3742 (  3925 PWs)   bands (ev):

   -24.0488  -7.4396  -6.4730  -6.2480  -5.8715  -4.0571   7.1245   7.3202
     7.6037  12.5631  16.5042  19.5865

          k = 0.4417-0.2550 0.0748 (  3928 PWs)   bands (ev):

   -24.1326  -8.9397  -5.7051  -5.5794  -4.9190  -3.8361   6.0736   8.2442
     8.9874  10.5866  17.2210  18.1320

          k = 0.4417-0.2550 0.2245 (  3928 PWs)   bands (ev):

   -24.1152  -8.6273  -6.2963  -5.5457  -5.1256  -3.6422   6.4710   8.0300
     8.2660  10.8771  17.4430  19.5990

          k = 0.4417-0.2550 0.3742 (  3911 PWs)   bands (ev):

   -24.0976  -8.1184  -6.8512  -5.6963  -5.5119  -3.2596   6.6057   7.8353
     7.8509  11.2253  17.4622  20.7874

          k =-0.0883-0.3570 0.0748 (  3923 PWs)   bands (ev):

   -24.2498  -8.9997  -5.9800  -5.5811  -5.1781  -2.3686   5.8426   8.2698
     9.8270  11.2041  15.9977  17.3130

          k =-0.0883-0.3570 0.2245 (  3919 PWs)   bands (ev):

   -24.2274  -9.0371  -6.4151  -5.5266  -4.8288  -2.3441   5.6099   8.2731
     9.3758  11.2279  16.2680  18.0397

          k =-0.0883-0.3570 0.3742 (  3914 PWs)   bands (ev):

   -24.2047  -9.1260  -6.5351  -5.4741  -4.7333  -2.3672   5.5409   8.1813
     8.9655  11.1486  16.5424  18.1199

          k =-0.0883-0.5610 0.0748 (  3919 PWs)   bands (ev):

   -24.1039  -8.8384  -5.9589  -5.5698  -4.8004  -3.9490   6.0941   7.7471
     8.7525  11.2259  17.2077  17.9235

          k =-0.0883-0.5610 0.2245 (  3926 PWs)   bands (ev):

   -24.0877  -8.4236  -6.3221  -5.6743  -5.3146  -3.7048   6.4628   7.6789
     8.2014  11.4590  17.1987  18.9960

          k =-0.0883-0.5610 0.3742 (  3917 PWs)   bands (ev):

   -24.0714  -7.6731  -6.9140  -6.0174  -5.6304  -3.5076   6.8146   7.5892
     7.7343  11.6921  17.1810  19.2568

          k =-0.0883 0.4590 0.0748 (  3917 PWs)   bands (ev):

   -24.1579  -8.9096  -5.8446  -5.6845  -4.9838  -3.3659   6.0758   7.8950
     9.1299  11.2050  16.6572  18.1256

          k =-0.0883 0.4590 0.2245 (  3915 PWs)   bands (ev):

   -24.1393  -8.6997  -6.3436  -5.6648  -4.9204  -3.3996   6.2737   7.8706
     8.5620  11.2849  16.8945  18.9483

          k =-0.0883 0.4590 0.3742 (  3914 PWs)   bands (ev):

   -24.1207  -8.4061  -6.7808  -5.5917  -5.2325  -3.2159   6.3149   7.8293
     8.1978  11.4384  17.0064  18.9677

          k =-0.0883 0.2550 0.0748 (  3935 PWs)   bands (ev):

   -24.3534  -9.1664  -5.9535  -5.4359  -5.2565  -1.4916   5.8940   8.6461
    10.4454  10.7476  15.6571  16.6065

          k =-0.0883 0.2550 0.2245 (  3920 PWs)   bands (ev):

   -24.3266  -9.4805  -6.0584  -5.3921  -4.7748  -1.4985   5.4337   8.6417
    10.0145  10.6605  15.9225  17.5263

          k =-0.0883 0.2550 0.3742 (  3930 PWs)   bands (ev):

   -24.2995  -9.7617  -6.0498  -5.3542  -4.4618  -1.4606   5.0038   8.6088
     9.6491  10.5995  16.1579  17.3693

          k =-0.0883 0.0510 0.0748 (  3953 PWs)   bands (ev):

   -24.4909  -9.3874  -5.9985  -5.2309  -5.2263  -0.1084   5.9256   9.2883
     9.6374  11.2652  15.0543  16.2506

          k =-0.0883 0.0510 0.2245 (  3924 PWs)   bands (ev):

   -24.4584  -9.9650  -5.4629  -5.2096  -4.9319  -0.0899   5.0316   9.3671
     9.6806  10.9922  16.0211  16.0989

          k =-0.0883 0.0510 0.3742 (  3900 PWs)   bands (ev):

   -24.4255 -10.4099  -5.3356  -5.1924  -4.3072  -0.0970   4.2430   9.4198
     9.7463  10.7093  15.8122  15.8902

          k =-0.2650-0.6630 0.0748 (  3906 PWs)   bands (ev):

   -24.0654  -8.3065  -7.0919  -5.4874  -4.4735  -3.8826   6.5078   6.6782
     7.8910  13.6299  15.6569  19.1969

          k =-0.2650-0.6630 0.2245 (  3912 PWs)   bands (ev):

   -24.0507  -7.9333  -6.7997  -5.7877  -5.0107  -4.2565   6.7441   7.0399
     7.7657  13.5862  15.7039  19.8399

          k =-0.2650-0.6630 0.3742 (  3912 PWs)   bands (ev):

   -24.0359  -7.2605  -6.4160  -6.2890  -5.6282  -4.7178   7.0802   7.2991
     7.6483  13.5147  15.6850  19.7435

          k =-0.2650 0.3570 0.0748 (  3914 PWs)   bands (ev):

   -24.1726  -8.8299  -6.1060  -5.7301  -5.0103  -2.9492   5.9925   7.5419
     9.1927  12.1584  15.8347  18.1377

          k =-0.2650 0.3570 0.2245 (  3928 PWs)   bands (ev):

   -24.1535  -8.6791  -6.4001  -5.8497  -4.8615  -3.0677   5.9351   7.7498
     8.8108  12.0858  16.0705  18.7697

          k =-0.2650 0.3570 0.3742 (  3919 PWs)   bands (ev):

   -24.1341  -8.5352  -6.7027  -5.7231  -4.9212  -3.2323   6.0717   7.7686
     8.4808  11.9481  16.3404  18.8993

          k =-0.2650 0.1530 0.0748 (  3925 PWs)   bands (ev):

   -24.3157  -9.1040  -6.0132  -5.4066  -5.2717  -1.8059   5.8012   8.7326
    10.2553  10.6990  15.9525  16.7868

          k =-0.2650 0.1530 0.2245 (  3928 PWs)   bands (ev):

   -24.2905  -9.3131  -6.2769  -5.3815  -4.8112  -1.7389   5.3898   8.6493
     9.8277  10.7418  16.3095  17.9354

          k =-0.2650 0.1530 0.3742 (  3925 PWs)   bands (ev):

   -24.2650  -9.5415  -6.2826  -5.3552  -4.5752  -1.7290   5.1377   8.5292
     9.4060  10.6842  16.5215  17.4242

          k =-0.4417 0.2550 0.0748 (  3928 PWs)   bands (ev):

   -24.1327  -8.9171  -5.7676  -5.5799  -5.0239  -3.6623   5.9624   8.2581
     9.0573  10.6543  17.2677  17.7797

          k =-0.4417 0.2550 0.2245 (  3928 PWs)   bands (ev):

   -24.1153  -8.5535  -6.4848  -5.5465  -5.1693  -3.4311   6.2088   8.0559
     8.4423  11.0240  17.3552  18.8154

          k =-0.4417 0.2550 0.3742 (  3911 PWs)   bands (ev):

   -24.0977  -8.0176  -7.0383  -5.6527  -5.5123  -3.1924   6.4500   7.8475
     7.9631  11.3052  17.3792  20.2808

!    total energy              =    -138.65444925 Ry
     Harris-Foulkes estimate   =    -138.65444937 Ry
     estimated scf accuracy    <       0.00000043 Ry

     The total energy is the sum of the following terms:

     one-electron contribution =      -6.98149613 Ry
     hartree contribution      =      22.24221987 Ry
     xc contribution           =     -26.96022306 Ry
     ewald contribution        =    -126.95494993 Ry

     convergence has been achieved in  12 iterations

     Forces acting on atoms (Ry/au):

     atom    1 type  3   force =     0.00000000    0.00000000    0.00694444
     atom    2 type  2   force =    -0.00000000   -0.00000000   -0.44140562
     atom    3 type  2   force =     0.00000000    0.00000000    0.39367583
     atom    4 type  1   force =     0.00000000    0.00000000    0.17034291
     atom    5 type  1   force =     0.00000000    0.00000000   -0.12955757

     Total force =     0.629023     Total SCF correction =     0.000617


     entering subroutine stress ...

          total   stress  (Ry/bohr**3)                   (kbar)     P= 2241.18
   0.01868866   0.00000000   0.00000000       2749.20      0.00      0.00
   0.00000000   0.01868866   0.00000000          0.00   2749.20      0.00
  -0.00000000  -0.00000000   0.00832837         -0.00     -0.00   1225.15


     number of scf cycles    =   2
     number of bfgs steps    =   1

     enthalpy old            =    -136.2140099419 Ry
     enthalpy new            =    -136.5412860125 Ry

     CASE: enthalpy_new < enthalpy_old

     new trust radius        =       0.8000000000 bohr
     new conv_thr            =       0.0000010000 Ry

     new unit-cell volume =    131.81605 a.u.^3 (    19.53312 Ang^3 )

CELL_PARAMETERS (alat=  5.86000000)
   0.988220561  -0.000000000  -0.000000000
  -0.494110281   0.855824111  -0.000000000
   0.000000000   0.000000000   0.774527879

ATOMIC_POSITIONS (crystal)
Ca      -0.000000000  -0.000000000   0.000883828
O        0.333333333   0.666666667   0.399597873
O        0.666666667   0.333333333   0.603894787
H        0.333333333   0.666666667   0.732067949
H        0.666666667   0.333333333   0.273555563



     Writing output data file CaOH2_ambient.save
     NEW-OLD atomic charge density approx. for the potential
     NEW k-points:
        k(    1) = (   0.0843267   0.1460580   0.1075924), wk =   0.0370370
        k(    2) = (   0.0843267   0.1460580   0.3227773), wk =   0.0370370
        k(    3) = (   0.0843267   0.1460580   0.5379621), wk =   0.0370370
        k(    4) = (   0.0843267   0.3408021   0.1075924), wk =   0.0370370
        k(    5) = (   0.0843267   0.3408021   0.3227773), wk =   0.0370370
        k(    6) = (   0.0843267   0.3408021   0.5379621), wk =   0.0370370
        k(    7) = (   0.0843267   0.5355462   0.1075924), wk =   0.0370370
        k(    8) = (   0.0843267   0.5355462   0.3227773), wk =   0.0370370
        k(    9) = (   0.0843267   0.5355462   0.5379621), wk =   0.0370370
        k(   10) = (   0.0843267  -0.4381741   0.1075924), wk =   0.0370370
        k(   11) = (   0.0843267  -0.4381741   0.3227773), wk =   0.0370370
        k(   12) = (   0.0843267  -0.4381741   0.5379621), wk =   0.0370370
        k(   13) = (   0.0843267  -0.2434301   0.1075924), wk =   0.0370370
        k(   14) = (   0.0843267  -0.2434301   0.3227773), wk =   0.0370370
        k(   15) = (   0.0843267  -0.2434301   0.5379621), wk =   0.0370370
        k(   16) = (   0.0843267  -0.0486860   0.1075924), wk =   0.0185185
        k(   17) = (   0.0843267  -0.0486860   0.3227773), wk =   0.0185185
        k(   18) = (   0.0843267  -0.0486860   0.5379621), wk =   0.0185185
        k(   19) = (   0.2529800   0.4381741   0.1075924), wk =   0.0370370
        k(   20) = (   0.2529800   0.4381741   0.3227773), wk =   0.0370370
        k(   21) = (   0.2529800   0.4381741   0.5379621), wk =   0.0370370
        k(   22) = (   0.2529800   0.6329182   0.1075924), wk =   0.0370370
        k(   23) = (   0.2529800   0.6329182   0.3227773), wk =   0.0370370
        k(   24) = (   0.2529800   0.6329182   0.5379621), wk =   0.0370370
        k(   25) = (   0.2529800  -0.3408021   0.1075924), wk =   0.0370370
        k(   26) = (   0.2529800  -0.3408021   0.3227773), wk =   0.0370370
        k(   27) = (   0.2529800  -0.3408021   0.5379621), wk =   0.0370370
        k(   28) = (   0.2529800  -0.1460580   0.1075924), wk =   0.0185185
        k(   29) = (   0.2529800  -0.1460580   0.3227773), wk =   0.0185185
        k(   30) = (   0.2529800  -0.1460580   0.5379621), wk =   0.0185185
        k(   31) = (   0.4216333   0.7302902   0.1075924), wk =   0.0370370
        k(   32) = (   0.4216333   0.7302902   0.3227773), wk =   0.0370370
        k(   33) = (   0.4216333   0.7302902   0.5379621), wk =   0.0370370
        k(   34) = (   0.4216333  -0.2434301   0.1075924), wk =   0.0185185
        k(   35) = (   0.4216333  -0.2434301   0.3227773), wk =   0.0185185
        k(   36) = (   0.4216333  -0.2434301   0.5379621), wk =   0.0185185
        k(   37) = (  -0.0843267  -0.3408021   0.1075924), wk =   0.0370370
        k(   38) = (  -0.0843267  -0.3408021   0.3227773), wk =   0.0370370
        k(   39) = (  -0.0843267  -0.3408021   0.5379621), wk =   0.0370370
        k(   40) = (  -0.0843267  -0.5355462   0.1075924), wk =   0.0370370
        k(   41) = (  -0.0843267  -0.5355462   0.3227773), wk =   0.0370370
        k(   42) = (  -0.0843267  -0.5355462   0.5379621), wk =   0.0370370
        k(   43) = (  -0.0843267   0.4381741   0.1075924), wk =   0.0370370
        k(   44) = (  -0.0843267   0.4381741   0.3227773), wk =   0.0370370
        k(   45) = (  -0.0843267   0.4381741   0.5379621), wk =   0.0370370
        k(   46) = (  -0.0843267   0.2434301   0.1075924), wk =   0.0370370
        k(   47) = (  -0.0843267   0.2434301   0.3227773), wk =   0.0370370
        k(   48) = (  -0.0843267   0.2434301   0.5379621), wk =   0.0370370
        k(   49) = (  -0.0843267   0.0486860   0.1075924), wk =   0.0185185
        k(   50) = (  -0.0843267   0.0486860   0.3227773), wk =   0.0185185
        k(   51) = (  -0.0843267   0.0486860   0.5379621), wk =   0.0185185
        k(   52) = (  -0.2529800  -0.6329182   0.1075924), wk =   0.0370370
        k(   53) = (  -0.2529800  -0.6329182   0.3227773), wk =   0.0370370
        k(   54) = (  -0.2529800  -0.6329182   0.5379621), wk =   0.0370370
        k(   55) = (  -0.2529800   0.3408021   0.1075924), wk =   0.0370370
        k(   56) = (  -0.2529800   0.3408021   0.3227773), wk =   0.0370370
        k(   57) = (  -0.2529800   0.3408021   0.5379621), wk =   0.0370370
        k(   58) = (  -0.2529800   0.1460580   0.1075924), wk =   0.0185185
        k(   59) = (  -0.2529800   0.1460580   0.3227773), wk =   0.0185185
        k(   60) = (  -0.2529800   0.1460580   0.5379621), wk =   0.0185185
        k(   61) = (  -0.4216333   0.2434301   0.1075924), wk =   0.0185185
        k(   62) = (  -0.4216333   0.2434301   0.3227773), wk =   0.0185185
        k(   63) = (  -0.4216333   0.2434301   0.5379621), wk =   0.0185185

     negative rho (up, down):  0.719E-03 0.000E+00
     extrapolated charge   17.17679, renormalised to   24.00000

     total cpu time spent up to now is      435.9 secs

     per-process dynamical memory:    18.8 Mb

     Self-consistent Calculation

     iteration #  1     ecut=   100.00 Ry     beta=0.30
     Davidson diagonalization with overlap
     ethr =  1.00E-06,  avg # of iterations =  8.7

     negative rho (up, down):  0.887E-04 0.000E+00

     total cpu time spent up to now is      464.5 secs

     total energy              =    -137.57190951 Ry
     Harris-Foulkes estimate   =    -138.34747889 Ry
     estimated scf accuracy    <       3.59355655 Ry

     iteration #  2     ecut=   100.00 Ry     beta=0.30
     Davidson diagonalization with overlap
     ethr =  1.00E-02,  avg # of iterations =  2.0

     total cpu time spent up to now is      476.3 secs

     total energy              =    -138.73555756 Ry
     Harris-Foulkes estimate   =    -138.87725966 Ry
     estimated scf accuracy    <       0.62574832 Ry

     iteration #  3     ecut=   100.00 Ry     beta=0.30
     Davidson diagonalization with overlap
     ethr =  2.61E-03,  avg # of iterations =  1.0

     total cpu time spent up to now is      484.1 secs

     total energy              =    -138.54003414 Ry
     Harris-Foulkes estimate   =    -138.74551024 Ry
     estimated scf accuracy    <       0.34017583 Ry

     iteration #  4     ecut=   100.00 Ry     beta=0.30
     Davidson diagonalization with overlap
     ethr =  1.42E-03,  avg # of iterations =  2.0

     total cpu time spent up to now is      494.6 secs

     total energy              =    -138.59348924 Ry
     Harris-Foulkes estimate   =    -138.59419244 Ry
     estimated scf accuracy    <       0.00638942 Ry

     iteration #  5     ecut=   100.00 Ry     beta=0.30
     Davidson diagonalization with overlap
     ethr =  2.66E-05,  avg # of iterations =  1.8

     total cpu time spent up to now is      502.7 secs

     total energy              =    -138.59274983 Ry
     Harris-Foulkes estimate   =    -138.59383175 Ry
     estimated scf accuracy    <       0.00382652 Ry

     iteration #  6     ecut=   100.00 Ry     beta=0.30
     Davidson diagonalization with overlap
     ethr =  1.59E-05,  avg # of iterations =  2.0

     total cpu time spent up to now is      511.1 secs

     total energy              =    -138.59303848 Ry
     Harris-Foulkes estimate   =    -138.59306619 Ry
     estimated scf accuracy    <       0.00012761 Ry

     iteration #  7     ecut=   100.00 Ry     beta=0.30
     Davidson diagonalization with overlap
     ethr =  5.32E-07,  avg # of iterations =  2.0

     total cpu time spent up to now is      520.7 secs

     total energy              =    -138.59303927 Ry
     Harris-Foulkes estimate   =    -138.59305490 Ry
     estimated scf accuracy    <       0.00004225 Ry

     iteration #  8     ecut=   100.00 Ry     beta=0.30
     Davidson diagonalization with overlap
     ethr =  1.76E-07,  avg # of iterations =  2.0

     total cpu time spent up to now is      531.3 secs

     total energy              =    -138.59304466 Ry
     Harris-Foulkes estimate   =    -138.59304552 Ry
     estimated scf accuracy    <       0.00000401 Ry

     iteration #  9     ecut=   100.00 Ry     beta=0.30
     Davidson diagonalization with overlap
     ethr =  1.67E-08,  avg # of iterations =  1.0

     total cpu time spent up to now is      539.1 secs

     total energy              =    -138.59304358 Ry
     Harris-Foulkes estimate   =    -138.59304479 Ry
     estimated scf accuracy    <       0.00000220 Ry

     iteration # 10     ecut=   100.00 Ry     beta=0.30
     Davidson diagonalization with overlap
     ethr =  9.17E-09,  avg # of iterations =  2.1

     total cpu time spent up to now is      549.3 secs

     End of self-consistent calculation

          k = 0.0843 0.1461 0.1076 (  3927 PWs)   bands (ev):

   -19.4342  -5.0114  -0.4916   0.1059   1.3103   1.4657  12.8534  13.2912
    13.9858  15.6631  20.4548  21.2988

          k = 0.0843 0.1461 0.3228 (  3931 PWs)   bands (ev):

   -18.9397  -5.3132  -0.6270  -0.0804   1.3892   1.9630  10.3343  13.5072
    13.9248  14.4707  19.4379  20.7821

          k = 0.0843 0.1461 0.5380 (  3917 PWs)   bands (ev):

   -18.3669  -6.1809  -0.2955   0.3693   1.2214   2.5797   8.2052  12.1401
    14.0739  14.7141  18.9443  19.8081

          k = 0.0843 0.3408 0.1076 (  3923 PWs)   bands (ev):

   -19.1650  -5.8727  -1.5800   0.2449   1.2184   2.2061  13.1260  13.7290
    15.1919  15.9190  19.7661  21.7843

          k = 0.0843 0.3408 0.3228 (  3919 PWs)   bands (ev):

   -18.7116  -5.3396  -1.4062  -0.6285   1.1373   1.8662  11.1345  12.8505
    13.5579  15.8478  20.2748  21.9271

          k = 0.0843 0.3408 0.5380 (  3914 PWs)   bands (ev):

   -18.1954  -5.2290  -1.5290   0.0406   0.4433   1.4382   9.7378  11.0579
    13.2738  15.7113  20.8026  21.5228

          k = 0.0843 0.5355 0.1076 (  3919 PWs)   bands (ev):

   -18.9535  -6.4006  -2.3914   0.0311   1.3850   3.0061  13.4298  13.7317
    15.0276  16.2775  20.4860  22.0324

          k = 0.0843 0.5355 0.3228 (  3926 PWs)   bands (ev):

   -18.5349  -5.3897  -2.1064  -0.6357   0.8777   1.6787  11.8229  12.3724
    13.6730  16.6795  20.6439  22.3107

          k = 0.0843 0.5355 0.5380 (  3917 PWs)   bands (ev):

   -18.0647  -3.7470  -2.8266  -0.7692  -0.1522   0.9688   9.8124  11.5381
    12.9186  17.3021  20.5853  22.4431

          k = 0.0843-0.4382 0.1076 (  3917 PWs)   bands (ev):

   -19.0326  -6.2099  -2.1027   0.1123   1.3169   2.6950  12.9977  14.0280
    15.2619  16.4648  19.9754  21.5485

          k = 0.0843-0.4382 0.3228 (  3915 PWs)   bands (ev):

   -18.6007  -5.3546  -1.8718  -0.6678   0.9719   1.7780  11.0691  13.0362
    13.8574  16.7354  20.2291  21.3769

          k = 0.0843-0.4382 0.5380 (  3914 PWs)   bands (ev):

   -18.1132  -4.5005  -2.2091  -0.2468  -0.0892   1.1290   9.6822  11.4320
    13.1648  16.7183  20.7489  21.6627

          k = 0.0843-0.2434 0.1076 (  3935 PWs)   bands (ev):

   -19.3120  -5.4386  -0.9754   0.3170   1.1714   1.6933  12.8646  13.5946
    15.0986  15.5743  20.0474  21.1820

          k = 0.0843-0.2434 0.3228 (  3920 PWs)   bands (ev):

   -18.8357  -5.3115  -1.0104  -0.3895   1.4407   1.7898  10.4523  13.6453
    13.8647  15.0695  19.6411  21.0060

          k = 0.0843-0.2434 0.5380 (  3930 PWs)   bands (ev):

   -18.2884  -5.7891  -0.9099   0.2252   0.9393   2.0300   8.8333  11.6576
    13.9032  14.9324  19.7207  20.6956

          k = 0.0843-0.0487 0.1076 (  3953 PWs)   bands (ev):

   -19.5030  -4.7263  -0.2785  -0.1266   1.1874   1.7452  12.7446  13.0531
    13.4276  15.7141  20.7568  21.3497

          k = 0.0843-0.0487 0.3228 (  3924 PWs)   bands (ev):

   -18.9985  -5.3191  -0.2778   0.0704   1.0789   2.2786  10.2437  13.3201
    13.8590  14.3691  19.4722  20.4080

          k = 0.0843-0.0487 0.5380 (  3900 PWs)   bands (ev):

   -18.4115  -6.3796   0.1441   0.4414   1.2931   2.9144   7.7932  12.5188
    14.1844  14.7570  18.4895  19.0202

          k = 0.2530 0.4382 0.1076 (  3913 PWs)   bands (ev):

   -18.9562  -5.9674  -3.7020   1.1886   1.9000   2.4499  12.6173  13.7327
    14.7799  17.7378  19.2736  22.6767

          k = 0.2530 0.4382 0.3228 (  3920 PWs)   bands (ev):

   -18.5368  -5.0751  -2.8006  -0.8698   1.6121   1.7202  11.4237  12.3797
    13.9000  17.1790  19.7206  22.5512

          k = 0.2530 0.4382 0.5380 (  3907 PWs)   bands (ev):

   -18.0656  -3.9932  -1.9583  -1.2140  -0.1739   0.5667  10.6120  10.8122
    14.1483  16.4615  20.0694  22.3382

          k = 0.2530 0.6329 0.1076 (  3906 PWs)   bands (ev):

   -18.8984  -5.8114  -4.3670   1.2766   2.0538   2.7033  12.4912  13.7608
    14.4466  18.1554  19.2892  23.0746

          k = 0.2530 0.6329 0.3228 (  3912 PWs)   bands (ev):

   -18.4888  -4.8185  -3.4505  -0.7447   1.6224   1.7008  11.7098  12.3064
    13.6434  17.8177  19.2791  22.8598

          k = 0.2530 0.6329 0.5380 (  3912 PWs)   bands (ev):

   -18.0302  -3.2048  -2.4326  -1.5713  -0.3968   0.3006  10.5601  11.1358
    14.2651  17.3178  19.1767  22.5260

          k = 0.2530-0.3408 0.1076 (  3914 PWs)   bands (ev):

   -19.0543  -6.0044  -2.7107   0.9137   1.4731   2.3026  12.8447  13.7542
    15.1192  16.8311  19.4927  22.1546

          k = 0.2530-0.3408 0.3228 (  3928 PWs)   bands (ev):

   -18.6187  -5.2655  -1.9405  -0.9722   1.4527   1.7883  11.2073  12.5542
    13.9412  16.3801  20.1834  22.1829

          k = 0.2530-0.3408 0.5380 (  3919 PWs)   bands (ev):

   -18.1263  -4.6838  -1.7705  -0.5433   0.1339   1.0039  10.2568  10.8078
    13.7558  15.9005  20.7270  21.9929

          k = 0.2530-0.1461 0.1076 (  3925 PWs)   bands (ev):

   -19.2587  -5.6376  -0.5707  -0.4018   1.1324   2.0150  13.4015  13.4094
    14.9040  15.6348  19.8778  21.6705

          k = 0.2530-0.1461 0.3228 (  3928 PWs)   bands (ev):

   -18.7906  -5.3385  -1.2389  -0.1587   1.0170   1.8891  10.9898  13.1830
    13.2521  15.5057  20.0351  21.7056

          k = 0.2530-0.1461 0.5380 (  3925 PWs)   bands (ev):

   -18.2545  -5.6031  -1.2005   0.2847   0.7564   1.7734   9.2934  11.3341
    13.1924  15.5045  20.4461  21.0087

          k = 0.4216 0.7303 0.1076 (  3910 PWs)   bands (ev):

   -18.9183  -6.1785  -3.5205   0.9694   1.5301   2.9309  12.9520  13.5962
    14.7619  17.2946  19.8796  22.6590

          k = 0.4216 0.7303 0.3228 (  3917 PWs)   bands (ev):

   -18.5055  -5.1526  -2.8002  -0.7427   1.3583   1.6733  11.6610  12.3680
    13.7783  17.2217  19.9170  22.6136

          k = 0.4216 0.7303 0.5380 (  3925 PWs)   bands (ev):

   -18.0428  -3.2345  -2.9606  -0.8665  -0.6193   0.6904  10.1124  11.4155
    13.6231  17.3843  19.7997  22.5032

          k = 0.4216-0.2434 0.1076 (  3928 PWs)   bands (ev):

   -18.9953  -6.3968  -1.3618  -0.8451   1.3301   2.9407  13.4418  14.1654
    14.9815  15.7713  20.7305  21.6463

          k = 0.4216-0.2434 0.3228 (  3928 PWs)   bands (ev):

   -18.5697  -5.4491  -1.8012  -0.3861   0.5107   1.7371  12.0255  12.3277
    13.4040  16.4240  20.9456  22.1939

          k = 0.4216-0.2434 0.5380 (  3911 PWs)   bands (ev):

   -18.0905  -4.2059  -2.5307  -0.6099   0.1266   1.0889   9.7716  11.4755
    12.6305  17.0435  20.9938  22.3312

          k =-0.0843-0.3408 0.1076 (  3923 PWs)   bands (ev):

   -19.1651  -5.8690  -1.5822   0.2510   1.2032   2.2007  12.8864  13.8892
    15.4346  16.1089  19.7546  21.2588

          k =-0.0843-0.3408 0.3228 (  3919 PWs)   bands (ev):

   -18.7117  -5.3257  -1.4421  -0.6242   1.1538   1.8587  10.7017  13.3120
    13.9478  15.9991  20.0213  21.0567

          k =-0.0843-0.3408 0.5380 (  3914 PWs)   bands (ev):

   -18.1955  -5.2190  -1.5600   0.0527   0.4230   1.4777   9.4216  11.3561
    13.5106  15.7227  20.5689  21.1771

          k =-0.0843-0.5355 0.1076 (  3919 PWs)   bands (ev):

   -18.9536  -6.3990  -2.3927   0.0300   1.3879   2.9971  13.2036  13.9546
    15.0920  16.3832  20.3932  21.8965

          k =-0.0843-0.5355 0.3228 (  3926 PWs)   bands (ev):

   -18.5350  -5.3821  -2.1240  -0.6330   0.8934   1.6649  11.4479  12.7866
    13.7358  16.9020  20.4166  21.9366

          k =-0.0843-0.5355 0.5380 (  3917 PWs)   bands (ev):

   -18.0648  -3.7036  -2.8935  -0.7295  -0.1713   0.9732   9.7219  11.6251
    12.9602  17.4466  20.4303  22.2330

          k =-0.0843 0.4382 0.1076 (  3917 PWs)   bands (ev):

   -19.0325  -6.2136  -2.0998   0.1134   1.3142   2.7125  13.3531  13.7129
    15.0823  16.2000  20.1386  21.9548

          k =-0.0843 0.4382 0.3228 (  3915 PWs)   bands (ev):

   -18.6006  -5.3711  -1.8303  -0.6758   0.9443   1.8001  11.7616  12.2803
    13.6246  16.3370  20.6241  22.2992

          k =-0.0843 0.4382 0.5380 (  3914 PWs)   bands (ev):

   -18.1131  -4.5245  -2.1446  -0.3483  -0.0161   1.1118   9.9765  11.1508
    13.0257  16.5399  20.9311  22.1912

          k =-0.0843 0.2434 0.1076 (  3935 PWs)   bands (ev):

   -19.3119  -5.4404  -0.9744   0.3018   1.2184   1.6681  12.9553  13.5765
    14.8943  15.5768  19.9065  21.5546

          k =-0.0843 0.2434 0.3228 (  3920 PWs)   bands (ev):

   -18.8356  -5.3171  -1.0030  -0.3805   1.4468   1.7757  10.6426  13.4703
    13.5016  15.1744  19.7681  21.3655

          k =-0.0843 0.2434 0.5380 (  3930 PWs)   bands (ev):

   -18.2883  -5.7919  -0.9051   0.2319   0.9592   1.9911   8.9564  11.5508
    13.6412  15.0685  20.0044  20.6693

          k =-0.0843 0.0487 0.1076 (  3953 PWs)   bands (ev):

   -19.5030  -4.7259  -0.2844  -0.1176   1.1764   1.7517  12.8596  12.8628
    13.5116  15.7202  20.9595  21.1102

          k =-0.0843 0.0487 0.3228 (  3924 PWs)   bands (ev):

   -18.9985  -5.3184  -0.2696   0.0571   1.0797   2.2821  10.2062  13.5744
    13.6821  14.3657  19.4559  20.3522

          k =-0.0843 0.0487 0.5380 (  3900 PWs)   bands (ev):

   -18.4116  -6.3794   0.1510   0.4339   1.2860   2.9266   7.7736  12.5243
    14.4656  14.5184  18.3483  19.1096

          k =-0.2530-0.6329 0.1076 (  3906 PWs)   bands (ev):

   -18.8984  -5.8119  -4.3664   1.2767   2.0514   2.7069  12.5067  13.7350
    14.4467  18.1169  19.3305  23.0907

          k =-0.2530-0.6329 0.3228 (  3912 PWs)   bands (ev):

   -18.4888  -4.8214  -3.4466  -0.7455   1.6248   1.6989  11.9643  12.0179
    13.6676  17.7278  19.3716  22.9108

          k =-0.2530-0.6329 0.5380 (  3912 PWs)   bands (ev):

   -18.0302  -3.2223  -2.3897  -1.6041  -0.3850   0.2959  10.6102  11.0838
    14.2659  17.2642  19.2331  22.5507

          k =-0.2530 0.3408 0.1076 (  3914 PWs)   bands (ev):

   -19.0544  -6.0025  -2.7124   0.9172   1.4719   2.2935  12.7450  13.8522
    15.1792  16.9800  19.3738  21.9912

          k =-0.2530 0.3408 0.3228 (  3928 PWs)   bands (ev):

   -18.6188  -5.2577  -1.9618  -0.9629   1.4597   1.7812  10.9716  12.8485
    14.0064  16.5610  19.9807  21.8123

          k =-0.2530 0.3408 0.5380 (  3919 PWs)   bands (ev):

   -18.1264  -4.6755  -1.8044  -0.5025   0.1064   1.0191  10.0131  11.0499
    13.8307  15.9465  20.6420  21.7876

          k =-0.2530 0.1461 0.1076 (  3925 PWs)   bands (ev):

   -19.2588  -5.6335  -0.5811  -0.3842   1.1001   2.0224  12.9745  13.6856
    15.3773  15.6352  20.1947  20.8113

          k =-0.2530 0.1461 0.3228 (  3928 PWs)   bands (ev):

   -18.7907  -5.3250  -1.2601  -0.1828   1.0377   1.8922  10.5246  13.6092
    13.9027  15.4719  19.7659  20.8243

          k =-0.2530 0.1461 0.5380 (  3925 PWs)   bands (ev):

   -18.2546  -5.5956  -1.2184   0.2704   0.7309   1.8414   8.9985  11.5991
    13.5412  15.4373  19.9309  20.9201

          k =-0.4216 0.2434 0.1076 (  3928 PWs)   bands (ev):

   -18.9954  -6.3936  -1.3623  -0.8498   1.3346   2.9237  13.1658  14.3258
    15.2566  15.9629  20.7124  21.1694

          k =-0.4216 0.2434 0.3228 (  3928 PWs)   bands (ev):

   -18.5699  -5.4343  -1.8365  -0.3971   0.5566   1.7112  11.2817  13.0564
    13.6847  16.8071  20.7068  21.1967

          k =-0.4216 0.2434 0.5380 (  3911 PWs)   bands (ev):

   -18.0906  -4.1690  -2.6048  -0.5693   0.1199   1.0957   9.5718  11.6519
    12.7502  17.2713  20.8002  21.8086

!    total energy              =    -138.59304410 Ry
     Harris-Foulkes estimate   =    -138.59304415 Ry
     estimated scf accuracy    <       0.00000010 Ry

     The total energy is the sum of the following terms:

     one-electron contribution =      13.46067598 Ry
     hartree contribution      =      16.82877651 Ry
     xc contribution           =     -27.95780330 Ry
     ewald contribution        =    -140.92469329 Ry

     convergence has been achieved in  10 iterations

     Forces acting on atoms (Ry/au):

     atom    1 type  3   force =     0.00000000    0.00000000    0.00130969
     atom    2 type  2   force =    -0.00000000    0.00000000   -0.55833183
     atom    3 type  2   force =     0.00000000    0.00000000    0.58140183
     atom    4 type  1   force =     0.00000000    0.00000000    0.37508090
     atom    5 type  1   force =    -0.00000000   -0.00000000   -0.39946060

     Total force =     0.974689     Total SCF correction =     0.000172


     entering subroutine stress ...

          total   stress  (Ry/bohr**3)                   (kbar)     P= 4332.96
   0.03117080   0.00000000   0.00000000       4585.38      0.00      0.00
   0.00000000   0.03117080   0.00000000          0.00   4585.38      0.00
   0.00000000   0.00000000   0.02602300          0.00      0.00   3828.12


     number of scf cycles    =   3
     number of bfgs steps    =   2

     enthalpy old            =    -136.5412860125 Ry
     enthalpy new            =    -136.9801226451 Ry

     CASE: enthalpy_new < enthalpy_old

     new trust radius        =       0.2076254481 bohr
     new conv_thr            =       0.0000010000 Ry

     new unit-cell volume =    152.89418 a.u.^3 (    22.65658 Ang^3 )

CELL_PARAMETERS (alat=  5.86000000)
   1.065497757  -0.000000000  -0.000000000
  -0.532748879   0.922748125  -0.000000000
   0.000000000   0.000000000   0.772791586

ATOMIC_POSITIONS (crystal)
Ca      -0.000000000   0.000000000   0.000979945
O        0.333333333   0.666666667   0.354617826
O        0.666666667   0.333333333   0.649640027
H        0.333333333   0.666666667   0.755174002
H        0.666666667   0.333333333   0.249588200



     Writing output data file CaOH2_ambient.save
     NEW-OLD atomic charge density approx. for the potential
     NEW k-points:
        k(    1) = (   0.0782107   0.1354649   0.1078342), wk =   0.0370370
        k(    2) = (   0.0782107   0.1354649   0.3235025), wk =   0.0370370
        k(    3) = (   0.0782107   0.1354649   0.5391708), wk =   0.0370370
        k(    4) = (   0.0782107   0.3160848   0.1078342), wk =   0.0370370
        k(    5) = (   0.0782107   0.3160848   0.3235025), wk =   0.0370370
        k(    6) = (   0.0782107   0.3160848   0.5391708), wk =   0.0370370
        k(    7) = (   0.0782107   0.4967047   0.1078342), wk =   0.0370370
        k(    8) = (   0.0782107   0.4967047   0.3235025), wk =   0.0370370
        k(    9) = (   0.0782107   0.4967047   0.5391708), wk =   0.0370370
        k(   10) = (   0.0782107  -0.4063948   0.1078342), wk =   0.0370370
        k(   11) = (   0.0782107  -0.4063948   0.3235025), wk =   0.0370370
        k(   12) = (   0.0782107  -0.4063948   0.5391708), wk =   0.0370370
        k(   13) = (   0.0782107  -0.2257749   0.1078342), wk =   0.0370370
        k(   14) = (   0.0782107  -0.2257749   0.3235025), wk =   0.0370370
        k(   15) = (   0.0782107  -0.2257749   0.5391708), wk =   0.0370370
        k(   16) = (   0.0782107  -0.0451550   0.1078342), wk =   0.0185185
        k(   17) = (   0.0782107  -0.0451550   0.3235025), wk =   0.0185185
        k(   18) = (   0.0782107  -0.0451550   0.5391708), wk =   0.0185185
        k(   19) = (   0.2346321   0.4063948   0.1078342), wk =   0.0370370
        k(   20) = (   0.2346321   0.4063948   0.3235025), wk =   0.0370370
        k(   21) = (   0.2346321   0.4063948   0.5391708), wk =   0.0370370
        k(   22) = (   0.2346321   0.5870146   0.1078342), wk =   0.0370370
        k(   23) = (   0.2346321   0.5870146   0.3235025), wk =   0.0370370
        k(   24) = (   0.2346321   0.5870146   0.5391708), wk =   0.0370370
        k(   25) = (   0.2346321  -0.3160848   0.1078342), wk =   0.0370370
        k(   26) = (   0.2346321  -0.3160848   0.3235025), wk =   0.0370370
        k(   27) = (   0.2346321  -0.3160848   0.5391708), wk =   0.0370370
        k(   28) = (   0.2346321  -0.1354649   0.1078342), wk =   0.0185185
        k(   29) = (   0.2346321  -0.1354649   0.3235025), wk =   0.0185185
        k(   30) = (   0.2346321  -0.1354649   0.5391708), wk =   0.0185185
        k(   31) = (   0.3910535   0.6773246   0.1078342), wk =   0.0370370
        k(   32) = (   0.3910535   0.6773246   0.3235025), wk =   0.0370370
        k(   33) = (   0.3910535   0.6773246   0.5391708), wk =   0.0370370
        k(   34) = (   0.3910535  -0.2257749   0.1078342), wk =   0.0185185
        k(   35) = (   0.3910535  -0.2257749   0.3235025), wk =   0.0185185
        k(   36) = (   0.3910535  -0.2257749   0.5391708), wk =   0.0185185
        k(   37) = (  -0.0782107  -0.3160848   0.1078342), wk =   0.0370370
        k(   38) = (  -0.0782107  -0.3160848   0.3235025), wk =   0.0370370
        k(   39) = (  -0.0782107  -0.3160848   0.5391708), wk =   0.0370370
        k(   40) = (  -0.0782107  -0.4967047   0.1078342), wk =   0.0370370
        k(   41) = (  -0.0782107  -0.4967047   0.3235025), wk =   0.0370370
        k(   42) = (  -0.0782107  -0.4967047   0.5391708), wk =   0.0370370
        k(   43) = (  -0.0782107   0.4063948   0.1078342), wk =   0.0370370
        k(   44) = (  -0.0782107   0.4063948   0.3235025), wk =   0.0370370
        k(   45) = (  -0.0782107   0.4063948   0.5391708), wk =   0.0370370
        k(   46) = (  -0.0782107   0.2257749   0.1078342), wk =   0.0370370
        k(   47) = (  -0.0782107   0.2257749   0.3235025), wk =   0.0370370
        k(   48) = (  -0.0782107   0.2257749   0.5391708), wk =   0.0370370
        k(   49) = (  -0.0782107   0.0451550   0.1078342), wk =   0.0185185
        k(   50) = (  -0.0782107   0.0451550   0.3235025), wk =   0.0185185
        k(   51) = (  -0.0782107   0.0451550   0.5391708), wk =   0.0185185
        k(   52) = (  -0.2346321  -0.5870146   0.1078342), wk =   0.0370370
        k(   53) = (  -0.2346321  -0.5870146   0.3235025), wk =   0.0370370
        k(   54) = (  -0.2346321  -0.5870146   0.5391708), wk =   0.0370370
        k(   55) = (  -0.2346321   0.3160848   0.1078342), wk =   0.0370370
        k(   56) = (  -0.2346321   0.3160848   0.3235025), wk =   0.0370370
        k(   57) = (  -0.2346321   0.3160848   0.5391708), wk =   0.0370370
        k(   58) = (  -0.2346321   0.1354649   0.1078342), wk =   0.0185185
        k(   59) = (  -0.2346321   0.1354649   0.3235025), wk =   0.0185185
        k(   60) = (  -0.2346321   0.1354649   0.5391708), wk =   0.0185185
        k(   61) = (  -0.3910535   0.2257749   0.1078342), wk =   0.0185185
        k(   62) = (  -0.3910535   0.2257749   0.3235025), wk =   0.0185185
        k(   63) = (  -0.3910535   0.2257749   0.5391708), wk =   0.0185185
     extrapolated charge   27.03294, renormalised to   24.00000

     total cpu time spent up to now is      630.8 secs

     per-process dynamical memory:    18.8 Mb

     Self-consistent Calculation

     iteration #  1     ecut=   100.00 Ry     beta=0.30
     Davidson diagonalization with overlap
     ethr =  1.00E-06,  avg # of iterations =  7.6

     total cpu time spent up to now is      657.1 secs

     total energy              =    -138.91128819 Ry
     Harris-Foulkes estimate   =    -139.32423447 Ry
     estimated scf accuracy    <       0.51792145 Ry

     iteration #  2     ecut=   100.00 Ry     beta=0.30
     Davidson diagonalization with overlap
     ethr =  2.16E-03,  avg # of iterations =  3.0

     total cpu time spent up to now is      670.7 secs

     total energy              =    -139.26758318 Ry
     Harris-Foulkes estimate   =    -139.28777700 Ry
     estimated scf accuracy    <       0.10499605 Ry

     iteration #  3     ecut=   100.00 Ry     beta=0.30
     Davidson diagonalization with overlap
     ethr =  4.37E-04,  avg # of iterations =  1.0

     total cpu time spent up to now is      678.4 secs

     total energy              =    -139.22743574 Ry
     Harris-Foulkes estimate   =    -139.26896536 Ry
     estimated scf accuracy    <       0.06213831 Ry

     iteration #  4     ecut=   100.00 Ry     beta=0.30
     Davidson diagonalization with overlap
     ethr =  2.59E-04,  avg # of iterations =  2.0

     total cpu time spent up to now is      688.5 secs

     total energy              =    -139.24302069 Ry
     Harris-Foulkes estimate   =    -139.24419381 Ry
     estimated scf accuracy    <       0.00591920 Ry

     iteration #  5     ecut=   100.00 Ry     beta=0.30
     Davidson diagonalization with overlap
     ethr =  2.47E-05,  avg # of iterations =  1.1

     total cpu time spent up to now is      696.2 secs

     total energy              =    -139.24162326 Ry
     Harris-Foulkes estimate   =    -139.24319202 Ry
     estimated scf accuracy    <       0.00317282 Ry

     iteration #  6     ecut=   100.00 Ry     beta=0.30
     Davidson diagonalization with overlap
     ethr =  1.32E-05,  avg # of iterations =  2.0

     total cpu time spent up to now is      706.7 secs

     total energy              =    -139.24225993 Ry
     Harris-Foulkes estimate   =    -139.24227228 Ry
     estimated scf accuracy    <       0.00005405 Ry

     iteration #  7     ecut=   100.00 Ry     beta=0.30
     Davidson diagonalization with overlap
     ethr =  2.25E-07,  avg # of iterations =  2.0

     total cpu time spent up to now is      716.2 secs

     total energy              =    -139.24225814 Ry
     Harris-Foulkes estimate   =    -139.24226656 Ry
     estimated scf accuracy    <       0.00002769 Ry

     iteration #  8     ecut=   100.00 Ry     beta=0.30
     Davidson diagonalization with overlap
     ethr =  1.15E-07,  avg # of iterations =  1.7

[...]
        k(   59) = (  -0.2260186   0.1304919   0.3269068), wk =   0.0185185
        k(   60) = (  -0.2260186   0.1304919   0.5448446), wk =   0.0185185
        k(   61) = (  -0.3766977   0.2174865   0.1089689), wk =   0.0185185
        k(   62) = (  -0.3766977   0.2174865   0.3269068), wk =   0.0185185
        k(   63) = (  -0.3766977   0.2174865   0.5448446), wk =   0.0185185

     Dense  grid:    15781 G-vectors     FFT dimensions: (  40,  40,  25)

     Largest allocated arrays     est. size (Mb)     dimensions
        Kohn-Sham Wavefunctions         0.51 Mb     (   2767,   12)
        NL pseudopotentials             0.38 Mb     (   2767,    9)
        Each V/rho on FFT grid          0.61 Mb     (  40000)
        Each G-vector array             0.12 Mb     (  15781)
        G-vector shells                 0.01 Mb     (    770)
     Largest temporary arrays     est. size (Mb)     dimensions
        Auxiliary wavefunctions         2.03 Mb     (   2767,   48)
        Each subspace H/S matrix        0.04 Mb     (  48,  48)
        Each <psi_i|beta_j> matrix      0.00 Mb     (      9,   12)
        Arrays for rho mixing           9.77 Mb     (  40000,  16)

     Initial potential from superposition of free atoms

     starting charge   21.99998, renormalised to   24.00000
     Starting wfc are   14 randomized atomic wfcs

     Writing output data file CaOH2_ambient.save

     total cpu time spent up to now is     2835.1 secs

     per-process dynamical memory:    14.4 Mb

     Self-consistent Calculation

     iteration #  1     ecut=   100.00 Ry     beta=0.30
     Davidson diagonalization with overlap
     ethr =  1.00E-06,  avg # of iterations =  5.7

     total cpu time spent up to now is     2850.9 secs

     total energy              =    -139.56643583 Ry
     Harris-Foulkes estimate   =    -139.65223291 Ry
     estimated scf accuracy    <       0.48416899 Ry

     iteration #  2     ecut=   100.00 Ry     beta=0.30
     Davidson diagonalization with overlap
     ethr =  2.02E-03,  avg # of iterations =  1.0

     total cpu time spent up to now is     2856.1 secs

     total energy              =    -139.37146664 Ry
     Harris-Foulkes estimate   =    -139.57066471 Ry
     estimated scf accuracy    <       0.30783069 Ry

     iteration #  3     ecut=   100.00 Ry     beta=0.30
     Davidson diagonalization with overlap
     ethr =  1.28E-03,  avg # of iterations =  2.0

     total cpu time spent up to now is     2862.7 secs

     total energy              =    -139.42168957 Ry
     Harris-Foulkes estimate   =    -139.42987236 Ry
     estimated scf accuracy    <       0.02039379 Ry

     iteration #  4     ecut=   100.00 Ry     beta=0.30
     Davidson diagonalization with overlap
     ethr =  8.50E-05,  avg # of iterations =  2.0

     total cpu time spent up to now is     2869.1 secs

     total energy              =    -139.42319368 Ry
     Harris-Foulkes estimate   =    -139.42699233 Ry
     estimated scf accuracy    <       0.01059591 Ry

     iteration #  5     ecut=   100.00 Ry     beta=0.30
     Davidson diagonalization with overlap
     ethr =  4.41E-05,  avg # of iterations =  1.5

     total cpu time spent up to now is     2873.9 secs

     total energy              =    -139.42229798 Ry
     Harris-Foulkes estimate   =    -139.42383254 Ry
     estimated scf accuracy    <       0.00292014 Ry

     iteration #  6     ecut=   100.00 Ry     beta=0.30
     Davidson diagonalization with overlap
     ethr =  1.22E-05,  avg # of iterations =  2.0

     total cpu time spent up to now is     2880.2 secs

     total energy              =    -139.42307674 Ry
     Harris-Foulkes estimate   =    -139.42310834 Ry
     estimated scf accuracy    <       0.00007199 Ry

     iteration #  7     ecut=   100.00 Ry     beta=0.30
     Davidson diagonalization with overlap
     ethr =  3.00E-07,  avg # of iterations =  2.0

     total cpu time spent up to now is     2886.8 secs

     total energy              =    -139.42309269 Ry
     Harris-Foulkes estimate   =    -139.42309042 Ry
     estimated scf accuracy    <       0.00000566 Ry

     iteration #  8     ecut=   100.00 Ry     beta=0.30
     Davidson diagonalization with overlap
     ethr =  2.36E-08,  avg # of iterations =  2.0

     total cpu time spent up to now is     2892.8 secs

     total energy              =    -139.42309221 Ry
     Harris-Foulkes estimate   =    -139.42309334 Ry
     estimated scf accuracy    <       0.00000217 Ry

     iteration #  9     ecut=   100.00 Ry     beta=0.30
     Davidson diagonalization with overlap
     ethr =  9.06E-09,  avg # of iterations =  2.0

     total cpu time spent up to now is     2899.1 secs

     total energy              =    -139.42309271 Ry
     Harris-Foulkes estimate   =    -139.42309267 Ry
     estimated scf accuracy    <       0.00000003 Ry

     iteration # 10     ecut=   100.00 Ry     beta=0.30
     Davidson diagonalization with overlap
     ethr =  1.44E-10,  avg # of iterations =  3.0

     total cpu time spent up to now is     2906.7 secs

     total energy              =    -139.42309267 Ry
     Harris-Foulkes estimate   =    -139.42309273 Ry
     estimated scf accuracy    <       0.00000012 Ry

     iteration # 11     ecut=   100.00 Ry     beta=0.30
     Davidson diagonalization with overlap
     ethr =  1.44E-10,  avg # of iterations =  3.0

     total cpu time spent up to now is     2914.0 secs

     End of self-consistent calculation

          k = 0.0753 0.1305 0.1090 (  2767 PWs)   bands (ev):

   -23.9067  -7.1287  -5.1278  -4.3157  -3.5928  -2.2729   9.7621  10.2060
    11.2664  13.1202  15.0007  15.5696

          k = 0.0753 0.1305 0.3269 (  2757 PWs)   bands (ev):

   -23.4658  -6.9109  -5.2934  -4.7853  -3.4327  -1.6448   7.3334  10.0783
    10.5222  11.2926  14.2950  15.3822

          k = 0.0753 0.1305 0.5448 (  2747 PWs)   bands (ev):

   -22.9683  -8.0256  -4.8280  -4.4255  -2.7884  -0.8784   4.5773   7.2042
    11.6401  12.5976  13.2606  14.5440

          k = 0.0753 0.3045 0.1090 (  2753 PWs)   bands (ev):

   -23.8313  -7.9266  -5.4654  -3.9593  -3.1464  -2.2845  10.1491  11.0797
    12.2691  12.6041  14.3310  15.6321

          k = 0.0753 0.3045 0.3269 (  2753 PWs)   bands (ev):

   -23.4012  -7.1541  -5.6898  -4.9856  -2.9595  -1.7003   7.4903   9.4330
    10.6436  12.4684  14.5744  15.6469

          k = 0.0753 0.3045 0.5448 (  2758 PWs)   bands (ev):

   -22.9176  -7.6540  -5.5728  -4.5585  -2.8767  -0.8814   4.8993   6.5159
    11.2470  12.8256  14.6523  15.1105

          k = 0.0753 0.4785 0.1090 (  2741 PWs)   bands (ev):

   -23.7750  -8.3234  -5.7389  -3.8818  -3.4128  -1.5495  10.3740  11.4826
    12.2389  12.6288  14.6877  15.5499

          k = 0.0753 0.4785 0.3269 (  2754 PWs)   bands (ev):

   -23.3531  -7.4076  -5.6708  -5.1530  -3.0602  -1.5343   8.0641   8.8820
    10.9445  12.6681  14.9386  15.5068

          k = 0.0753 0.4785 0.5448 (  2761 PWs)   bands (ev):

   -22.8800  -7.3215  -6.0130  -4.6667  -2.9290  -1.2312   5.4159   6.1663
    11.1755  13.4509  14.8864  15.1159

          k = 0.0753-0.3915 0.1090 (  2747 PWs)   bands (ev):

   -23.7957  -8.2007  -5.6244  -3.6285  -3.5466  -1.9097  10.5095  11.5866
    12.2613  12.5854  14.2896  15.2741

          k = 0.0753-0.3915 0.3269 (  2759 PWs)   bands (ev):

   -23.3708  -7.3777  -5.5324  -5.1325  -2.7687  -1.9982   8.1507   9.0424
    11.2095  12.6588  14.4011  14.9286

          k = 0.0753-0.3915 0.5448 (  2764 PWs)   bands (ev):

   -22.8938  -7.4772  -5.8229  -4.6272  -2.7259  -1.3780   5.5410   6.1023
    11.5003  13.1316  14.5989  14.8090

          k = 0.0753-0.2175 0.1090 (  2761 PWs)   bands (ev):

   -23.8719  -7.5698  -5.2724  -3.8685  -3.4264  -2.5100  10.0575  10.8887
    11.4899  12.9740  14.5832  15.3796

          k = 0.0753-0.2175 0.3269 (  2754 PWs)   bands (ev):

   -23.4359  -7.0558  -5.4614  -4.8881  -2.9360  -1.9926   7.5163   9.7997
    10.8732  11.7424  14.1647  15.2755

          k = 0.0753-0.2175 0.5448 (  2757 PWs)   bands (ev):

   -22.9449  -7.8704  -5.1968  -4.4874  -2.6951  -1.0161   4.8051   6.8331
    11.8697  12.3047  13.6763  14.9074

          k = 0.0753-0.0435 0.1090 (  2767 PWs)   bands (ev):

   -23.9266  -6.7601  -5.0590  -4.7367  -3.6631  -2.0744   9.5734   9.8051
    11.1465  13.2110  15.2705  15.6625

          k = 0.0753-0.0435 0.3269 (  2763 PWs)   bands (ev):

   -23.4829  -6.8478  -5.0433  -4.7364  -3.8279  -1.4569   7.2771  10.2790
    10.3473  10.9296  14.4978  15.2523

          k = 0.0753-0.0435 0.5448 (  2744 PWs)   bands (ev):

   -22.9817  -8.1111  -4.5605  -4.3936  -2.8734  -0.8561   4.5029   7.4424
    11.6600  12.5200  13.2329  14.1381

          k = 0.2260 0.3915 0.1090 (  2734 PWs)   bands (ev):

   -23.7752  -8.0232  -6.5796  -3.5950  -2.5380  -2.0974   9.7249  11.7478
    12.2243  13.2969  13.9944  15.9880

          k = 0.2260 0.3915 0.3269 (  2759 PWs)   bands (ev):

   -23.3533  -7.1717  -5.9103  -5.4943  -2.3159  -1.8973   8.0757   8.8859
    10.7288  13.1652  14.4006  15.5654

          k = 0.2260 0.3915 0.5448 (  2756 PWs)   bands (ev):

   -22.8801  -7.3432  -5.7730  -5.0375  -2.5786  -1.5005   5.6257   6.0549
    11.8360  12.9892  14.6376  14.8622

          k = 0.2260 0.5655 0.1090 (  2736 PWs)   bands (ev):

   -23.7601  -7.9247  -6.9764  -3.5663  -2.4512  -1.8838   9.5175  11.8145
    12.1053  13.5544  14.0782  16.1985

          k = 0.2260 0.5655 0.3269 (  2751 PWs)   bands (ev):

   -23.3403  -7.0634  -6.2213  -5.4971  -2.2047  -1.8558   8.3766   8.6318
    10.5593  13.5061  14.2099  15.7157

          k = 0.2260 0.5655 0.5448 (  2758 PWs)   bands (ev):

   -22.8700  -7.2470  -5.7642  -5.2390  -2.4084  -1.7628   5.8762   5.9187
    11.8854  13.4348  14.3234  14.7383

          k = 0.2260-0.3045 0.1090 (  2751 PWs)   bands (ev):

   -23.8013  -8.0376  -6.0201  -3.6975  -2.8551  -2.2276   9.9753  11.5521
    12.3339  12.8099  14.1032  15.7554

          k = 0.2260-0.3045 0.3269 (  2757 PWs)   bands (ev):

   -23.3756  -7.2089  -5.7024  -5.3111  -2.6391  -1.8014   7.7453   9.1692
    10.7954  12.7403  14.6221  15.4976

          k = 0.2260-0.3045 0.5448 (  2759 PWs)   bands (ev):

   -22.8976  -7.4936  -5.7160  -4.7739  -2.7615  -1.1571   5.2432   6.2752
    11.5532  12.7993  14.7524  15.0673

          k = 0.2260-0.1305 0.1090 (  2759 PWs)   bands (ev):

   -23.8571  -7.7295  -5.1803  -4.1693  -3.2392  -2.3725  10.1161  10.7161
    11.9799  12.7297  14.4858  15.6522

          k = 0.2260-0.1305 0.3269 (  2752 PWs)   bands (ev):

   -23.4232  -7.0602  -5.6560  -4.8345  -3.1115  -1.6731   7.3597   9.6459
    10.4826  12.2589  14.4098  15.7266

          k = 0.2260-0.1305 0.5448 (  2762 PWs)   bands (ev):

   -22.9349  -7.7865  -5.3742  -4.4669  -2.8875  -0.7701   4.7061   6.7260
    11.1770  12.8228  14.3862  14.9696

          k = 0.3767 0.6525 0.1090 (  2732 PWs)   bands (ev):

   -23.7655  -8.1742  -6.4251  -3.5931  -3.0139  -1.6508   9.8606  11.7359
    12.1935  13.0602  14.3617  15.9286

          k = 0.3767 0.6525 0.3269 (  2756 PWs)   bands (ev):

   -23.3450  -7.2800  -5.8353  -5.4509  -2.6114  -1.6750   8.2982   8.6926
    10.7824  13.0694  14.5301  15.6163

          k = 0.3767 0.6525 0.5448 (  2764 PWs)   bands (ev):

   -22.8737  -7.2744  -5.9235  -4.9506  -2.6700  -1.5077   5.6652   6.0468
    11.5555  13.4634  14.5889  14.8787

          k = 0.3767-0.2175 0.1090 (  2745 PWs)   bands (ev):

   -23.7861  -8.3178  -5.2992  -4.2579  -3.4304  -1.6014  10.8318  10.9509
    12.2362  12.5701  14.8799  15.3180

          k = 0.3767-0.2175 0.3269 (  2751 PWs)   bands (ev):

   -23.3625  -7.4028  -5.6843  -4.9345  -3.2552  -1.4790   7.8502   9.0342
    10.8929  12.5474  15.1398  15.5051

          k = 0.3767-0.2175 0.5448 (  2758 PWs)   bands (ev):

   -22.8874  -7.3838  -5.9872  -4.5414  -3.0329  -1.0534   5.2267   6.2533
    11.0167  13.3470  15.0169  15.2597

          k =-0.0753-0.3045 0.1090 (  2753 PWs)   bands (ev):

   -23.8313  -7.9424  -5.4535  -3.6824  -3.3799  -2.3630  10.3428  11.4367
    11.8911  12.7884  14.2194  15.2613

          k =-0.0753-0.3045 0.3269 (  2753 PWs)   bands (ev):

   -23.4012  -7.2356  -5.5150  -5.0177  -2.5284  -2.3148   7.8116   9.4396
    11.1601  12.2534  14.2223  14.9960

          k =-0.0753-0.3045 0.5448 (  2758 PWs)   bands (ev):

   -22.9176  -7.6735  -5.5474  -4.5609  -2.6664  -1.2261   5.1704   6.4343
    11.7893  12.5254  14.1660  14.9840

          k =-0.0753-0.4785 0.1090 (  2741 PWs)   bands (ev):

   -23.7750  -8.3289  -5.7325  -3.7777  -3.5010  -1.5852  10.4821  11.5610
    12.3838  12.4726  14.5763  15.4269

          k =-0.0753-0.4785 0.3269 (  2754 PWs)   bands (ev):

   -23.3531  -7.4383  -5.5882  -5.1784  -2.9828  -1.6926   8.3434   8.7514
    11.0965  12.7326  14.6630  15.2292

          k =-0.0753-0.4785 0.5448 (  2761 PWs)   bands (ev):

   -22.8800  -7.3380  -5.9917  -4.6671  -2.8413  -1.3742   5.6127   6.0447
    11.2878  13.5598  14.6569  14.9436

          k =-0.0753 0.3915 0.1090 (  2747 PWs)   bands (ev):

   -23.7957  -8.1868  -5.6388  -3.9299  -3.2884  -1.8236  10.2854  11.3188
    12.2373  12.6928  14.5135  15.5934

          k =-0.0753 0.3915 0.3269 (  2759 PWs)   bands (ev):

   -23.3708  -7.3011  -5.7196  -5.0842  -3.0242  -1.5528   7.7230   9.1259
    10.7916  12.6192  14.9291  15.6233

          k =-0.0753 0.3915 0.5448 (  2764 PWs)   bands (ev):

   -22.8938  -7.4477  -5.8620  -4.6258  -2.9373  -1.0328   5.1676   6.2917
    11.1644  13.1299  14.9675  15.1886

          k =-0.0753 0.2175 0.1090 (  2761 PWs)   bands (ev):

   -23.8719  -7.5596  -5.2762  -4.0338  -3.2735  -2.4859   9.9469  10.7471
    11.6966  12.8783  14.5334  15.6305

          k =-0.0753 0.2175 0.3269 (  2754 PWs)   bands (ev):

   -23.4359  -7.0128  -5.5483  -4.8763  -3.0620  -1.7754   7.3779   9.7819
    10.5339  12.0065  14.2714  15.5640

          k =-0.0753 0.2175 0.5448 (  2757 PWs)   bands (ev):

   -22.9449  -7.8637  -5.2040  -4.4849  -2.8020  -0.8434   4.6919   6.8488
    11.4121  12.6398  13.9948  14.8764

          k =-0.0753 0.0435 0.1090 (  2767 PWs)   bands (ev):

   -23.9266  -6.7642  -5.0612  -4.7140  -3.6782  -2.0786   9.6685   9.7304
    11.1316  13.2222  15.4142  15.4917

          k =-0.0753 0.0435 0.3269 (  2763 PWs)   bands (ev):

   -23.4829  -6.8549  -5.0224  -4.7414  -3.8240  -1.4796   7.2993  10.2316
    10.6403  10.6905  14.5022  15.1962

          k =-0.0753 0.0435 0.5448 (  2744 PWs)   bands (ev):

   -22.9817  -8.1119  -4.5595  -4.3964  -2.8533  -0.8853   4.5193   7.4427
    11.8150  12.3888  13.1297  14.1931

          k =-0.2260-0.5655 0.1090 (  2736 PWs)   bands (ev):

   -23.7601  -7.9226  -6.9790  -3.5704  -2.4574  -1.8699   9.5033  11.8421
    12.0624  13.5354  14.1163  16.2190

          k =-0.2260-0.5655 0.3269 (  2751 PWs)   bands (ev):

   -23.3403  -7.0507  -6.2431  -5.4911  -2.2594  -1.7893   8.2945   8.6898
    10.5473  13.4374  14.3012  15.7586

          k =-0.2260-0.5655 0.5448 (  2758 PWs)   bands (ev):

   -22.8700  -7.2441  -5.7699  -5.2374  -2.4395  -1.7234   5.7778   6.0063
    11.8552  13.4104  14.4198  14.7226

          k =-0.2260 0.3045 0.1090 (  2751 PWs)   bands (ev):

   -23.8013  -8.0451  -6.0101  -3.6336  -2.8795  -2.2880  10.0651  11.6119
    12.4966  12.6941  13.9827  15.6201

          k =-0.2260 0.3045 0.3269 (  2757 PWs)   bands (ev):

   -23.3756  -7.2493  -5.5450  -5.4038  -2.3450  -2.1759   7.9211   9.1436
    10.9594  12.7823  14.3852  15.1982

          k =-0.2260 0.3045 0.5448 (  2759 PWs)   bands (ev):

   -22.8975  -7.5054  -5.6990  -4.7744  -2.6607  -1.3173   5.3952   6.2034
    11.8065  12.6603  14.5973  14.9343

          k =-0.2260 0.1305 0.1090 (  2759 PWs)   bands (ev):

   -23.8571  -7.7490  -5.1845  -3.7607  -3.6003  -2.4380  10.3560  11.1034
    11.4706  12.9557  14.5657  15.0926

          k =-0.2260 0.1305 0.3269 (  2752 PWs)   bands (ev):

   -23.4232  -7.1526  -5.4819  -4.8440  -2.7829  -2.2077   7.6836   9.6812
    11.2631  11.7000  14.1144  15.0543

          k =-0.2260 0.1305 0.5448 (  2762 PWs)   bands (ev):

   -22.9349  -7.8036  -5.3540  -4.4723  -2.6497  -1.1567   4.9756   6.6743
    11.9147  12.3815  13.6994  14.9720

          k =-0.3767 0.2175 0.1090 (  2745 PWs)   bands (ev):

   -23.7861  -8.3290  -5.3012  -4.0725  -3.5708  -1.6728  10.9931  11.3527
    12.0654  12.5426  14.7189  14.9896

          k =-0.3767 0.2175 0.3269 (  2751 PWs)   bands (ev):

   -23.3625  -7.4651  -5.5540  -4.9390  -3.1064  -1.8085   8.3071   8.8960
    11.2969  12.5687  14.6763  14.8251

          k =-0.3767 0.2175 0.5448 (  2758 PWs)   bands (ev):

   -22.8874  -7.4149  -5.9474  -4.5440  -2.8505  -1.3561   5.6057   6.0426
    11.2540  13.5127  14.7177  14.7643

!    total energy              =    -139.42309269 Ry
     Harris-Foulkes estimate   =    -139.42309269 Ry
     estimated scf accuracy    <          2.8E-10 Ry

     The total energy is the sum of the following terms:

     one-electron contribution =       1.01803928 Ry
     hartree contribution      =      18.93636915 Ry
     xc contribution           =     -27.07250180 Ry
     ewald contribution        =    -132.30499931 Ry

     convergence has been achieved in  11 iterations

     Forces acting on atoms (Ry/au):

     atom    1 type  3   force =    -0.00000000    0.00000000    0.00010746
     atom    2 type  2   force =     0.00000000   -0.00000000   -0.00049831
     atom    3 type  2   force =     0.00000000   -0.00000000   -0.00025629
     atom    4 type  1   force =    -0.00000000    0.00000000    0.00046690
     atom    5 type  1   force =    -0.00000000    0.00000000    0.00018024

     Total force =     0.000759     Total SCF correction =     0.000046


     entering subroutine stress ...

          total   stress  (Ry/bohr**3)                   (kbar)     P= 1826.92
   0.01252867  -0.00000000   0.00000000       1843.03     -0.00      0.00
  -0.00000000   0.01252867   0.00000000         -0.00   1843.03      0.00
   0.00000000   0.00000000   0.01220008          0.00      0.00   1794.69


     Writing output data file CaOH2_ambient.save

     init_run     :     40.99s CPU     41.16s WALL (       2 calls)
     electrons    :   1502.91s CPU   1528.87s WALL (      18 calls)
     update_pot   :    615.17s CPU    619.83s WALL (      16 calls)
     forces       :    224.48s CPU    225.12s WALL (      18 calls)
     stress       :    499.35s CPU    500.51s WALL (      18 calls)

     Called by init_run:
     wfcinit      :      8.22s CPU      8.29s WALL (       2 calls)
     potinit      :     13.58s CPU     13.64s WALL (       2 calls)

     Called by electrons:
     c_bands      :   1290.87s CPU   1310.91s WALL (     148 calls)
     sum_band     :    188.24s CPU    193.16s WALL (     148 calls)
     v_of_rho     :     13.96s CPU     14.24s WALL (     164 calls)
     mix_rho      :     10.63s CPU     11.09s WALL (     148 calls)

     Called by c_bands:
     init_us_2    :     54.08s CPU     58.91s WALL (   21042 calls)
     cegterg      :   1260.76s CPU   1267.05s WALL (    9324 calls)

     Called by *egterg:
     h_psi        :    919.23s CPU    922.42s WALL (   31352 calls)
     g_psi        :     11.78s CPU     11.84s WALL (   21902 calls)
     cdiaghg      :     15.20s CPU     15.36s WALL (   30092 calls)

     Called by h_psi:
     add_vuspsi   :     31.21s CPU     31.35s WALL (   31352 calls)

     General routines
     calbec       :     35.00s CPU     34.99s WALL (   33620 calls)
     fft          :      3.53s CPU      3.53s WALL (    1950 calls)
     ffts         :      4.39s CPU      4.35s WALL (    2444 calls)
     fftw         :    879.94s CPU    883.15s WALL (  736136 calls)
     davcio       :      7.24s CPU     19.74s WALL (   30366 calls)


     PWSCF        : 48m 5.96s CPU    48m38.74s WALL


   This run was terminated on:   6:13:13  22Apr2014            

=------------------------------------------------------------------------------=
   JOB DONE.
=------------------------------------------------------------------------------=
