
     Program PWSCF v.5.0.2 (svn rev. 9392) starts on 22Apr2014 at  3:23:18 

     This program is part of the open-source Quantum ESPRESSO suite
     for quantum simulation of materials; please cite
         "P. Giannozzi et al., J. Phys.:Condens. Matter 21 395502 (2009);
          URL http://www.quantum-espresso.org", 
     in publications or presentations arising from this work. More details at
     http://www.quantum-espresso.org/quote.php

     Serial version

     Current dimensions of program PWSCF are:
     Max number of different atomic species (ntypx) = 10
     Max number of k-points (npk) =  40000
     Max angular momentum in pseudopotentials (lmaxx) =  3
     Waiting for input...
     Reading input from standard input

     G-vector sticks info
     --------------------
     sticks:   dense  smooth     PW     G-vecs:    dense   smooth      PW
     Sum         757     757    283                22473    22473    5157



     bravais-lattice index     =            4
     lattice parameter (alat)  =       5.8600  a.u.
     unit-cell volume          =     232.1281 (a.u.)^3
     number of atoms/cell      =            5
     number of atomic types    =            3
     number of electrons       =        24.00
     number of Kohn-Sham states=           12
     kinetic-energy cutoff     =     100.0000  Ry
     charge density cutoff     =     320.0000  Ry
     convergence threshold     =      1.0E-06
     mixing beta               =       0.3000
     number of iterations used =           16  local-TF  mixing
     Exchange-correlation      = PBE ( 1 4 3 4 0)
     EXX-fraction              =        0.00
     nstep                     =           50


     celldm(1)=   5.860000  celldm(2)=   0.000000  celldm(3)=   1.332000
     celldm(4)=   0.000000  celldm(5)=   0.000000  celldm(6)=   0.000000

     crystal axes: (cart. coord. in units of alat)
               a(1) = (   1.000000   0.000000   0.000000 )  
               a(2) = (  -0.500000   0.866025   0.000000 )  
               a(3) = (   0.000000   0.000000   1.332000 )  

     reciprocal axes: (cart. coord. in units 2 pi/alat)
               b(1) = (  1.000000  0.577350 -0.000000 )  
               b(2) = (  0.000000  1.154701  0.000000 )  
               b(3) = (  0.000000 -0.000000  0.750751 )  


     PseudoPot. # 1 for H  read from file:
     /home/ilia/espresso/pseudo/H.pbe-sp-mt.ncpp
     MD5 check sum: 7a641936b52ccecd26bd1ad87cca5aed
     Pseudo is Norm-conserving, Zval =  1.0
     Generated by old ld1 code (numerical format)
     Using radial grid of 1076 points,  0 beta functions with: 

     PseudoPot. # 2 for O  read from file:
     /home/ilia/espresso/pseudo/O.pbe-sp-mt.ncpp
     MD5 check sum: 8a3d23d410d2f3ebfd0a39faacc72cbb
     Pseudo is Norm-conserving, Zval =  6.0
     Generated by old ld1 code (numerical format)
     Using radial grid of 1130 points,  1 beta functions with: 
                l(1) =   1

     PseudoPot. # 3 for Ca read from file:
     /home/ilia/espresso/pseudo/Ca.pbe-sp-mt_ion2.ncpp
     MD5 check sum: 4bcd670d05521f7b178fdf0a334578ab
     Pseudo is Norm-conserving, Zval = 10.0
     Generated by old ld1 code (numerical format)
     Using radial grid of 1153 points,  1 beta functions with: 
                l(1) =   1

     atomic species   valence    mass     pseudopotential
        H              1.00     1.00700     H ( 1.00)
        O              6.00    16.00000     O ( 1.00)
        Ca            10.00    40.07800     Ca( 1.00)

      6 Sym. Ops. (no inversion) found



   Cartesian axes

     site n.     atom                  positions (alat units)
         1           Ca  tau(   1) = (   0.0000000   0.0000000   0.0000000  )
         2           O   tau(   2) = (   0.0000000   0.5773503   0.6287040  )
         3           O   tau(   3) = (   0.5000000   0.2886751   0.7166160  )
         4           H   tau(   4) = (   0.0000000   0.5773503   0.9430560  )
         5           H   tau(   5) = (   0.5000000   0.2886751   0.3889440  )

     number of k points=    63
                       cart. coord. in units 2pi/alat
        k(    1) = (   0.0833333   0.1443376   0.0625626), wk =   0.0370370
        k(    2) = (   0.0833333   0.1443376   0.1876877), wk =   0.0370370
        k(    3) = (   0.0833333   0.1443376   0.3128128), wk =   0.0370370
        k(    4) = (   0.0833333   0.3367877   0.0625626), wk =   0.0370370
        k(    5) = (   0.0833333   0.3367877   0.1876877), wk =   0.0370370
        k(    6) = (   0.0833333   0.3367877   0.3128128), wk =   0.0370370
        k(    7) = (   0.0833333   0.5292377   0.0625626), wk =   0.0370370
        k(    8) = (   0.0833333   0.5292377   0.1876877), wk =   0.0370370
        k(    9) = (   0.0833333   0.5292377   0.3128128), wk =   0.0370370
        k(   10) = (   0.0833333  -0.4330127   0.0625626), wk =   0.0370370
        k(   11) = (   0.0833333  -0.4330127   0.1876877), wk =   0.0370370
        k(   12) = (   0.0833333  -0.4330127   0.3128128), wk =   0.0370370
        k(   13) = (   0.0833333  -0.2405626   0.0625626), wk =   0.0370370
        k(   14) = (   0.0833333  -0.2405626   0.1876877), wk =   0.0370370
        k(   15) = (   0.0833333  -0.2405626   0.3128128), wk =   0.0370370
        k(   16) = (   0.0833333  -0.0481125   0.0625626), wk =   0.0185185
        k(   17) = (   0.0833333  -0.0481125   0.1876877), wk =   0.0185185
        k(   18) = (   0.0833333  -0.0481125   0.3128128), wk =   0.0185185
        k(   19) = (   0.2500000   0.4330127   0.0625626), wk =   0.0370370
        k(   20) = (   0.2500000   0.4330127   0.1876877), wk =   0.0370370
        k(   21) = (   0.2500000   0.4330127   0.3128128), wk =   0.0370370
        k(   22) = (   0.2500000   0.6254628   0.0625626), wk =   0.0370370
        k(   23) = (   0.2500000   0.6254628   0.1876877), wk =   0.0370370
        k(   24) = (   0.2500000   0.6254628   0.3128128), wk =   0.0370370
        k(   25) = (   0.2500000  -0.3367877   0.0625626), wk =   0.0370370
        k(   26) = (   0.2500000  -0.3367877   0.1876877), wk =   0.0370370
        k(   27) = (   0.2500000  -0.3367877   0.3128128), wk =   0.0370370
        k(   28) = (   0.2500000  -0.1443376   0.0625626), wk =   0.0185185
        k(   29) = (   0.2500000  -0.1443376   0.1876877), wk =   0.0185185
        k(   30) = (   0.2500000  -0.1443376   0.3128128), wk =   0.0185185
        k(   31) = (   0.4166667   0.7216878   0.0625626), wk =   0.0370370
        k(   32) = (   0.4166667   0.7216878   0.1876877), wk =   0.0370370
        k(   33) = (   0.4166667   0.7216878   0.3128128), wk =   0.0370370
        k(   34) = (   0.4166667  -0.2405626   0.0625626), wk =   0.0185185
        k(   35) = (   0.4166667  -0.2405626   0.1876877), wk =   0.0185185
        k(   36) = (   0.4166667  -0.2405626   0.3128128), wk =   0.0185185
        k(   37) = (  -0.0833333  -0.3367877   0.0625626), wk =   0.0370370
        k(   38) = (  -0.0833333  -0.3367877   0.1876877), wk =   0.0370370
        k(   39) = (  -0.0833333  -0.3367877   0.3128128), wk =   0.0370370
        k(   40) = (  -0.0833333  -0.5292377   0.0625626), wk =   0.0370370
        k(   41) = (  -0.0833333  -0.5292377   0.1876877), wk =   0.0370370
        k(   42) = (  -0.0833333  -0.5292377   0.3128128), wk =   0.0370370
        k(   43) = (  -0.0833333   0.4330127   0.0625626), wk =   0.0370370
        k(   44) = (  -0.0833333   0.4330127   0.1876877), wk =   0.0370370
        k(   45) = (  -0.0833333   0.4330127   0.3128128), wk =   0.0370370
        k(   46) = (  -0.0833333   0.2405626   0.0625626), wk =   0.0370370
        k(   47) = (  -0.0833333   0.2405626   0.1876877), wk =   0.0370370
        k(   48) = (  -0.0833333   0.2405626   0.3128128), wk =   0.0370370
        k(   49) = (  -0.0833333   0.0481125   0.0625626), wk =   0.0185185
        k(   50) = (  -0.0833333   0.0481125   0.1876877), wk =   0.0185185
        k(   51) = (  -0.0833333   0.0481125   0.3128128), wk =   0.0185185
        k(   52) = (  -0.2500000  -0.6254628   0.0625626), wk =   0.0370370
        k(   53) = (  -0.2500000  -0.6254628   0.1876877), wk =   0.0370370
        k(   54) = (  -0.2500000  -0.6254628   0.3128128), wk =   0.0370370
        k(   55) = (  -0.2500000   0.3367877   0.0625626), wk =   0.0370370
        k(   56) = (  -0.2500000   0.3367877   0.1876877), wk =   0.0370370
        k(   57) = (  -0.2500000   0.3367877   0.3128128), wk =   0.0370370
        k(   58) = (  -0.2500000   0.1443376   0.0625626), wk =   0.0185185
        k(   59) = (  -0.2500000   0.1443376   0.1876877), wk =   0.0185185
        k(   60) = (  -0.2500000   0.1443376   0.3128128), wk =   0.0185185
        k(   61) = (  -0.4166667   0.2405626   0.0625626), wk =   0.0185185
        k(   62) = (  -0.4166667   0.2405626   0.1876877), wk =   0.0185185
        k(   63) = (  -0.4166667   0.2405626   0.3128128), wk =   0.0185185

     Dense  grid:    22473 G-vectors     FFT dimensions: (  36,  36,  45)

     Largest allocated arrays     est. size (Mb)     dimensions
        Kohn-Sham Wavefunctions         0.72 Mb     (   3953,   12)
        NL pseudopotentials             0.54 Mb     (   3953,    9)
        Each V/rho on FFT grid          0.89 Mb     (  58320)
        Each G-vector array             0.17 Mb     (  22473)
        G-vector shells                 0.17 Mb     (  22473)
     Largest temporary arrays     est. size (Mb)     dimensions
        Auxiliary wavefunctions         2.90 Mb     (   3953,   48)
        Each subspace H/S matrix        0.04 Mb     (  48,  48)
        Each <psi_i|beta_j> matrix      0.00 Mb     (      9,   12)
        Arrays for rho mixing          14.24 Mb     (  58320,  16)

     Initial potential from superposition of free atoms

     starting charge   21.99998, renormalised to   24.00000
     Starting wfc are   14 randomized atomic wfcs

     total cpu time spent up to now is       34.3 secs

     per-process dynamical memory:    13.9 Mb

     Self-consistent Calculation

     iteration #  1     ecut=   100.00 Ry     beta=0.30
     Davidson diagonalization with overlap
     ethr =  1.00E-02,  avg # of iterations =  2.3

     total cpu time spent up to now is       45.7 secs

     total energy              =    -138.94986530 Ry
     Harris-Foulkes estimate   =    -139.04185099 Ry
     estimated scf accuracy    <       0.52656765 Ry

     iteration #  2     ecut=   100.00 Ry     beta=0.30
     Davidson diagonalization with overlap
     ethr =  2.19E-03,  avg # of iterations =  3.4

     total cpu time spent up to now is       54.4 secs

     total energy              =    -139.16707973 Ry
     Harris-Foulkes estimate   =    -139.21614704 Ry
     estimated scf accuracy    <       0.52852567 Ry

     iteration #  3     ecut=   100.00 Ry     beta=0.30
     Davidson diagonalization with overlap
     ethr =  2.19E-03,  avg # of iterations =  1.4

     total cpu time spent up to now is       62.3 secs

     total energy              =    -138.93257457 Ry
     Harris-Foulkes estimate   =    -139.19847496 Ry
     estimated scf accuracy    <       0.48983518 Ry

     iteration #  4     ecut=   100.00 Ry     beta=0.30
     Davidson diagonalization with overlap
     ethr =  2.04E-03,  avg # of iterations =  2.5

     total cpu time spent up to now is       73.1 secs

     total energy              =    -139.03303640 Ry
     Harris-Foulkes estimate   =    -139.05289624 Ry
     estimated scf accuracy    <       0.04652802 Ry

     iteration #  5     ecut=   100.00 Ry     beta=0.30
     Davidson diagonalization with overlap
     ethr =  1.94E-04,  avg # of iterations =  2.6

     total cpu time spent up to now is       83.0 secs

     total energy              =    -139.04848140 Ry
     Harris-Foulkes estimate   =    -139.05377528 Ry
     estimated scf accuracy    <       0.01521435 Ry

     iteration #  6     ecut=   100.00 Ry     beta=0.30
     Davidson diagonalization with overlap
     ethr =  6.34E-05,  avg # of iterations =  2.9

     total cpu time spent up to now is       92.4 secs

     total energy              =    -139.05410698 Ry
     Harris-Foulkes estimate   =    -139.05502653 Ry
     estimated scf accuracy    <       0.00495159 Ry

     iteration #  7     ecut=   100.00 Ry     beta=0.30
     Davidson diagonalization with overlap
     ethr =  2.06E-05,  avg # of iterations =  2.0

     total cpu time spent up to now is      100.5 secs

     total energy              =    -139.05276980 Ry
     Harris-Foulkes estimate   =    -139.05440544 Ry
     estimated scf accuracy    <       0.00330165 Ry

     iteration #  8     ecut=   100.00 Ry     beta=0.30
     Davidson diagonalization with overlap
     ethr =  1.38E-05,  avg # of iterations =  3.5

     total cpu time spent up to now is      111.0 secs

     total energy              =    -139.05378810 Ry
     Harris-Foulkes estimate   =    -139.05482205 Ry
     estimated scf accuracy    <       0.00301019 Ry

     iteration #  9     ecut=   100.00 Ry     beta=0.30
     Davidson diagonalization with overlap
     ethr =  1.25E-05,  avg # of iterations =  2.8

     total cpu time spent up to now is      119.8 secs

     total energy              =    -139.05432975 Ry
     Harris-Foulkes estimate   =    -139.05434863 Ry
     estimated scf accuracy    <       0.00006492 Ry

     iteration # 10     ecut=   100.00 Ry     beta=0.30
     Davidson diagonalization with overlap
     ethr =  2.71E-07,  avg # of iterations =  5.3

     total cpu time spent up to now is      131.0 secs

     total energy              =    -139.05436204 Ry
     Harris-Foulkes estimate   =    -139.05436828 Ry
     estimated scf accuracy    <       0.00001823 Ry

     iteration # 11     ecut=   100.00 Ry     beta=0.30
     Davidson diagonalization with overlap
     ethr =  7.60E-08,  avg # of iterations =  2.8

     total cpu time spent up to now is      140.5 secs

     End of self-consistent calculation

          k = 0.0833 0.1443 0.0626 (  3927 PWs)   bands (ev):

   -29.3065 -11.9448 -10.7842 -10.3875 -10.3814  -4.8109   1.6824   5.3356
     6.0939   6.7102   9.7753  11.2718

          k = 0.0833 0.1443 0.1877 (  3931 PWs)   bands (ev):

   -29.3037 -12.2622 -10.5966 -10.3789 -10.1716  -4.8068   1.2689   5.3442
     6.0915   6.5933  10.9252  11.2793

          k = 0.0833 0.1443 0.3128 (  3917 PWs)   bands (ev):

   -29.3009 -12.4859 -10.5501 -10.3762  -9.9047  -4.8034   0.8988   5.3499
     6.0895   6.4778  11.2853  11.8914

          k = 0.0833 0.3368 0.0626 (  3923 PWs)   bands (ev):

   -29.2216 -11.7017 -10.7547 -10.5165 -10.1887  -6.2830   2.0591   4.5550
     5.7297   6.7941  11.2887  11.3788

          k = 0.0833 0.3368 0.1877 (  3919 PWs)   bands (ev):

   -29.2195 -11.7296 -10.9121 -10.5085  -9.9998  -6.2883   1.9193   4.5578
     5.5550   6.7891  11.4212  12.3060

          k = 0.0833 0.3368 0.3128 (  3914 PWs)   bands (ev):

   -29.2175 -11.7531 -11.0089 -10.5019  -9.8880  -6.2723   1.7832   4.5554
     5.3814   6.7971  11.4938  13.1490

          k = 0.0833 0.5292 0.0626 (  3919 PWs)   bands (ev):

   -29.1582 -11.7369 -10.6366 -10.6126  -9.4840  -7.7022   2.5785   4.0813
     4.7383   6.9209  11.9974  12.6306

          k = 0.0833 0.5292 0.1877 (  3926 PWs)   bands (ev):

   -29.1568 -11.5974 -10.7154 -10.6023  -9.6665  -7.6513   2.7145   4.0716
     4.4801   6.9920  11.9894  13.5303

          k = 0.0833 0.5292 0.3128 (  3917 PWs)   bands (ev):

   -29.1553 -11.4073 -10.8078 -10.5939  -9.8945  -7.5848   2.8400   4.0788
     4.2287   7.0793  11.9568  13.9193

          k = 0.0833-0.4330 0.0626 (  3917 PWs)   bands (ev):

   -29.1815 -11.6915 -10.6918 -10.5768  -9.8818  -7.0657   2.3323   4.2575
     5.1291   6.9239  11.6562  12.0655

          k = 0.0833-0.4330 0.1877 (  3915 PWs)   bands (ev):

   -29.1798 -11.5544 -10.8855 -10.5666  -9.8926  -7.0380   2.3332   4.2696
     4.8978   6.9819  11.6637  12.7287

          k = 0.0833-0.4330 0.3128 (  3914 PWs)   bands (ev):

   -29.1782 -11.3378 -11.1390 -10.5591  -9.9057  -7.0315   2.3399   4.2636
     4.7228   7.0157  11.7231  13.5944

          k = 0.0833-0.2406 0.0626 (  3935 PWs)   bands (ev):

   -29.2673 -11.7901 -10.7942 -10.4438 -10.3592  -5.4681   1.8239   4.9533
     6.2691   6.5160  10.4391  11.1818

          k = 0.0833-0.2406 0.1877 (  3920 PWs)   bands (ev):

   -29.2649 -11.9999 -10.7912 -10.4388 -10.1081  -5.4582   1.5304   4.9596
     6.1153   6.5010  11.2294  11.4822

          k = 0.0833-0.2406 0.3128 (  3930 PWs)   bands (ev):

   -29.2624 -12.1706 -10.7784 -10.4345  -9.9003  -5.4569   1.2715   4.9539
     5.9764   6.4790  11.3118  12.4818

          k = 0.0833-0.0481 0.0626 (  3953 PWs)   bands (ev):

   -29.3290 -12.0448 -10.7871 -10.3609 -10.3483  -4.4288   1.6159   5.5654
     5.8178   6.9353   9.4089  11.3991

          k = 0.0833-0.0481 0.1877 (  3924 PWs)   bands (ev):

   -29.3260 -12.4038 -10.4571 -10.3463 -10.2231  -4.4290   1.1314   5.5796
     5.8352   6.8475  10.6134  11.3396

          k = 0.0833-0.0481 0.3128 (  3900 PWs)   bands (ev):

   -29.3229 -12.6492 -10.4099 -10.3443  -9.9108  -4.4293   0.7000   5.5985
     5.8498   6.7550  11.2984  11.5311

          k = 0.2500 0.4330 0.0626 (  3913 PWs)   bands (ev):

   -29.1584 -11.5559 -10.8465 -10.6361  -9.5530  -7.5439   2.6546   3.4239
     4.6260   8.4050  10.8672  12.8549

          k = 0.2500 0.4330 0.1877 (  3920 PWs)   bands (ev):

   -29.1569 -11.4345 -10.8209 -10.7352  -9.6327  -7.5916   2.6670   3.5394
     4.5223   8.3610  10.9049  13.4666

          k = 0.2500 0.4330 0.3128 (  3907 PWs)   bands (ev):

   -29.1554 -11.2503 -10.9170 -10.7687  -9.7181  -7.6402   2.7097   3.6197
     4.4267   8.3134  10.9451  14.0922

          k = 0.2500 0.6255 0.0626 (  3906 PWs)   bands (ev):

   -29.1413 -11.4742 -10.9999 -10.6028  -9.1325  -8.0972   3.0105   3.1615
     4.1134   8.9325  10.7029  13.3216

          k = 0.2500 0.6255 0.1877 (  3912 PWs)   bands (ev):

   -29.1400 -11.3612 -10.9528 -10.6469  -9.2886  -8.1648   3.0677   3.2988
     4.0456   8.9069  10.6878  13.8630

          k = 0.2500 0.6255 0.3128 (  3912 PWs)   bands (ev):

   -29.1387 -11.2271 -10.9005 -10.6994  -9.4556  -8.2385   3.1595   3.4011
     3.9838   8.8735  10.6722  14.3085

          k = 0.2500-0.3368 0.0626 (  3914 PWs)   bands (ev):

   -29.1878 -11.6356 -10.6977 -10.6595  -9.9326  -6.9011   2.3088   3.9319
     5.2155   7.5948  11.1081  12.0963

          k = 0.2500-0.3368 0.1877 (  3928 PWs)   bands (ev):

   -29.1861 -11.5519 -10.8721 -10.6430  -9.8741  -6.9217   2.2563   3.9944
     5.0650   7.5572  11.1923  12.9033

          k = 0.2500-0.3368 0.3128 (  3919 PWs)   bands (ev):

   -29.1843 -11.4117 -11.0778 -10.6256  -9.8500  -6.9311   2.2192   4.0364
     4.9174   7.5299  11.2616  13.6878

          k = 0.2500-0.1443 0.0626 (  3925 PWs)   bands (ev):

   -29.2506 -11.7608 -10.7820 -10.4454 -10.3218  -5.7749   1.9053   4.9753
     6.0849   6.3897  10.7694  11.3525

          k = 0.2500-0.1443 0.1877 (  3928 PWs)   bands (ev):

   -29.2483 -11.9080 -10.8538 -10.4424 -10.0669  -5.7766   1.6776   4.9471
     5.9225   6.3999  11.4310  11.8214

          k = 0.2500-0.1443 0.3128 (  3925 PWs)   bands (ev):

   -29.2460 -12.0291 -10.8807 -10.4394  -9.8944  -5.7568   1.4562   4.9248
     5.7589   6.4149  11.5071  12.6873

          k = 0.4167 0.7217 0.0626 (  3910 PWs)   bands (ev):

   -29.1475 -11.6283 -10.7957 -10.6126  -9.2744  -7.9510   2.8051   3.4930
     4.4047   7.9450  11.4193  12.9971

          k = 0.4167 0.7217 0.1877 (  3917 PWs)   bands (ev):

   -29.1461 -11.4979 -10.7735 -10.6588  -9.4757  -7.9430   2.9346   3.5629
     4.2296   7.9582  11.3994  13.6690

          k = 0.4167 0.7217 0.3128 (  3925 PWs)   bands (ev):

   -29.1448 -11.3385 -10.7456 -10.7098  -9.7037  -7.9370   3.0615   3.6550
     4.0443   7.9771  11.3705  14.1511

          k = 0.4167-0.2406 0.0626 (  3928 PWs)   bands (ev):

   -29.1707 -11.7582 -10.6600 -10.5406  -9.6962  -7.3916   2.4233   4.5059
     4.9907   6.4139  12.1258  12.3638

          k = 0.4167-0.2406 0.1877 (  3928 PWs)   bands (ev):

   -29.1691 -11.6250 -10.7891 -10.5365  -9.7861  -7.3523   2.5078   4.4523
     4.7130   6.5288  12.1552  13.3854

          k = 0.4167-0.2406 0.3128 (  3911 PWs)   bands (ev):

   -29.1675 -11.4118 -10.9705 -10.5325  -9.9275  -7.2804   2.5718   4.4015
     4.4702   6.6552  12.1361  13.6943

          k =-0.0833-0.3368 0.0626 (  3923 PWs)   bands (ev):

   -29.2216 -11.6856 -10.7691 -10.5157 -10.2028  -6.2637   2.0481   4.5626
     5.7084   6.8141  11.2061  11.3862

          k =-0.0833-0.3368 0.1877 (  3919 PWs)   bands (ev):

   -29.2195 -11.6952 -10.9446 -10.5078 -10.0257  -6.2494   1.8988   4.5714
     5.5164   6.8281  11.3592  12.1313

          k =-0.0833-0.3368 0.3128 (  3914 PWs)   bands (ev):

   -29.2175 -11.7358 -11.0257 -10.5016  -9.9005  -6.2527   1.7735   4.5615
     5.3637   6.8161  11.4668  13.1055

          k =-0.0833-0.5292 0.0626 (  3919 PWs)   bands (ev):

   -29.1582 -11.7316 -10.6410 -10.6090  -9.5029  -7.6848   2.5744   4.0885
     4.7256   6.9293  11.9820  12.5380

          k =-0.0833-0.5292 0.1877 (  3926 PWs)   bands (ev):

   -29.1568 -11.5827 -10.7240 -10.5997  -9.6997  -7.6209   2.7086   4.0891
     4.4497   7.0103  11.9484  13.1988

          k =-0.0833-0.5292 0.3128 (  3917 PWs)   bands (ev):

   -29.1553 -11.3949 -10.8172 -10.5927  -9.9093  -7.5714   2.8387   4.0988
     4.2008   7.0892  11.9336  13.8609

          k =-0.0833 0.4330 0.0626 (  3917 PWs)   bands (ev):

   -29.1815 -11.7060 -10.6837 -10.5789  -9.8538  -7.0926   2.3423   4.2469
     5.1536   6.9033  11.6952  12.1807

          k =-0.0833 0.4330 0.1877 (  3915 PWs)   bands (ev):

   -29.1798 -11.5966 -10.8521 -10.5686  -9.8447  -7.0896   2.3501   4.2493
     4.9469   6.9385  11.7494  13.1385

          k =-0.0833 0.4330 0.3128 (  3914 PWs)   bands (ev):

   -29.1782 -11.3974 -11.0819 -10.5599  -9.8848  -7.0562   2.3469   4.2534
     4.7480   6.9931  11.7677  13.6589

          k =-0.0833 0.2406 0.0626 (  3935 PWs)   bands (ev):

   -29.2673 -11.7971 -10.7852 -10.4440 -10.3570  -5.4763   1.8303   4.9491
     6.2772   6.5104  10.4561  11.1775

          k =-0.0833 0.2406 0.1877 (  3920 PWs)   bands (ev):

   -29.2649 -12.0093 -10.7815 -10.4388 -10.1001  -5.4752   1.5427   4.9518
     6.1303   6.4893  11.2419  11.5203

          k =-0.0833 0.2406 0.3128 (  3930 PWs)   bands (ev):

   -29.2624 -12.1742 -10.7750 -10.4346  -9.8958  -5.4656   1.2776   4.9502
     5.9831   6.4736  11.3123  12.5076

          k =-0.0833 0.0481 0.0626 (  3953 PWs)   bands (ev):

   -29.3290 -12.0440 -10.7883 -10.3609 -10.3483  -4.4275   1.6145   5.5698
     5.8154   6.9328   9.4082  11.4206

          k =-0.0833 0.0481 0.1877 (  3924 PWs)   bands (ev):

   -29.3260 -12.4030 -10.4579 -10.3463 -10.2241  -4.4261   1.1286   5.5887
     5.8296   6.8439  10.6103  11.3814

          k =-0.0833 0.0481 0.3128 (  3900 PWs)   bands (ev):

   -29.3229 -12.6489 -10.4100 -10.3443  -9.9115  -4.4278   0.6986   5.6031
     5.8467   6.7536  11.3202  11.5063

          k =-0.2500-0.6255 0.0626 (  3906 PWs)   bands (ev):

   -29.1413 -11.4760 -10.9984 -10.6031  -9.1279  -8.1017   3.0309   3.1380
     4.1179   8.9285  10.7084  13.3947

          k =-0.2500-0.6255 0.1877 (  3912 PWs)   bands (ev):

   -29.1400 -11.3660 -10.9482 -10.6480  -9.2798  -8.1732   3.0897   3.2694
     4.0558   8.8983  10.6999  14.0879

          k =-0.2500-0.6255 0.3128 (  3912 PWs)   bands (ev):

   -29.1387 -11.2308 -10.8960 -10.7009  -9.4514  -8.2424   3.1681   3.3876
     3.9900   8.8689  10.6787  14.3220

          k =-0.2500 0.3368 0.0626 (  3914 PWs)   bands (ev):

   -29.1878 -11.6279 -10.7129 -10.6493  -9.9427  -6.8903   2.3031   3.9389
     5.2038   7.6068  11.0876  12.0504

          k =-0.2500 0.3368 0.1877 (  3928 PWs)   bands (ev):

   -29.1861 -11.5305 -10.8948 -10.6386  -9.8918  -6.9005   2.2468   4.0067
     5.0424   7.5812  11.1519  12.7455

          k =-0.2500 0.3368 0.3128 (  3919 PWs)   bands (ev):

   -29.1843 -11.3890 -11.1009 -10.6243  -9.8582  -6.9207   2.2152   4.0419
     4.9064   7.5419  11.2416  13.6523

          k =-0.2500 0.1443 0.0626 (  3925 PWs)   bands (ev):

   -29.2506 -11.7439 -10.8002 -10.4455 -10.3306  -5.7556   1.8922   4.9813
     6.0699   6.4024  10.7229  11.3554

          k =-0.2500 0.1443 0.1877 (  3928 PWs)   bands (ev):

   -29.2483 -11.8817 -10.8793 -10.4425 -10.0885  -5.7370   1.6520   4.9589
     5.8904   6.4303  11.3875  11.7101

          k =-0.2500 0.1443 0.3128 (  3925 PWs)   bands (ev):

   -29.2460 -12.0184 -10.8906 -10.4394  -9.9057  -5.7366   1.4436   4.9306
     5.7437   6.4301  11.4976  12.6341

          k =-0.4167 0.2406 0.0626 (  3928 PWs)   bands (ev):

   -29.1707 -11.7467 -10.6615 -10.5406  -9.7289  -7.3622   2.4163   4.5081
     4.9739   6.4302  12.1032  12.2191

          k =-0.4167 0.2406 0.1877 (  3928 PWs)   bands (ev):

   -29.1691 -11.5921 -10.8066 -10.5366  -9.8426  -7.2981   2.4972   4.4566
     4.6772   6.5649  12.0703  12.8893

          k =-0.4167 0.2406 0.3128 (  3911 PWs)   bands (ev):

   -29.1675 -11.3767 -11.0001 -10.5326  -9.9515  -7.2555   2.5684   4.4037
     4.4510   6.6746  12.0898  13.6639

!    total energy              =    -139.05436489 Ry
     Harris-Foulkes estimate   =    -139.05436488 Ry
     estimated scf accuracy    <       0.00000049 Ry

     The total energy is the sum of the following terms:

     one-electron contribution =     -26.00484305 Ry
     hartree contribution      =      27.36434796 Ry
     xc contribution           =     -26.16570877 Ry
     ewald contribution        =    -114.24816104 Ry

     convergence has been achieved in  11 iterations

     Forces acting on atoms (Ry/au):

     atom    1 type  3   force =     0.00000000    0.00000000    0.00149915
     atom    2 type  2   force =     0.00000000   -0.00000000   -0.19004282
     atom    3 type  2   force =     0.00000000    0.00000000    0.17721185
     atom    4 type  1   force =     0.00000000    0.00000000    0.05072111
     atom    5 type  1   force =     0.00000000    0.00000000   -0.03938929

     Total force =     0.267669     Total SCF correction =     0.000970


     entering subroutine stress ...

          total   stress  (Ry/bohr**3)                   (kbar)     P=  943.94
   0.00867294  -0.00000000   0.00000000       1275.83     -0.00      0.00
  -0.00000000   0.00867294   0.00000000         -0.00   1275.83      0.00
   0.00000000  -0.00000000   0.00190454          0.00     -0.00    280.17


     BFGS Geometry Optimization

     number of scf cycles    =   1
     number of bfgs steps    =   0

     enthalpy new            =    -137.1607949253 Ry

     new trust radius        =       0.4763379365 bohr
     new conv_thr            =       0.0000010000 Ry

     new unit-cell volume =    200.92164 a.u.^3 (    29.77352 Ang^3 )

CELL_PARAMETERS (alat=  5.86000000)
   1.012887609  -0.000000000   0.000000000
  -0.506443804   0.877186401  -0.000000000
   0.000000000   0.000000000   1.123778509

ATOMIC_POSITIONS (crystal)
Ca       0.000000000   0.000000000   0.000192063
O        0.333333333   0.666666667   0.447652766
O        0.666666667   0.333333333   0.560703401
H        0.333333333   0.666666667   0.714498108
H        0.666666667   0.333333333   0.286953663



     Writing output data file CaOH2_ambient.save
     NEW-OLD atomic charge density approx. for the potential
     NEW k-points:
        k(    1) = (   0.0822730   0.1425011   0.0741546), wk =   0.0370370
        k(    2) = (   0.0822730   0.1425011   0.2224638), wk =   0.0370370
        k(    3) = (   0.0822730   0.1425011   0.3707729), wk =   0.0370370
        k(    4) = (   0.0822730   0.3325025   0.0741546), wk =   0.0370370
        k(    5) = (   0.0822730   0.3325025   0.2224638), wk =   0.0370370
        k(    6) = (   0.0822730   0.3325025   0.3707729), wk =   0.0370370
        k(    7) = (   0.0822730   0.5225039   0.0741546), wk =   0.0370370
        k(    8) = (   0.0822730   0.5225039   0.2224638), wk =   0.0370370
        k(    9) = (   0.0822730   0.5225039   0.3707729), wk =   0.0370370
        k(   10) = (   0.0822730  -0.4275032   0.0741546), wk =   0.0370370
        k(   11) = (   0.0822730  -0.4275032   0.2224638), wk =   0.0370370
        k(   12) = (   0.0822730  -0.4275032   0.3707729), wk =   0.0370370
        k(   13) = (   0.0822730  -0.2375018   0.0741546), wk =   0.0370370
        k(   14) = (   0.0822730  -0.2375018   0.2224638), wk =   0.0370370
        k(   15) = (   0.0822730  -0.2375018   0.3707729), wk =   0.0370370
        k(   16) = (   0.0822730  -0.0475004   0.0741546), wk =   0.0185185
        k(   17) = (   0.0822730  -0.0475004   0.2224638), wk =   0.0185185
        k(   18) = (   0.0822730  -0.0475004   0.3707729), wk =   0.0185185
        k(   19) = (   0.2468191   0.4275032   0.0741546), wk =   0.0370370
        k(   20) = (   0.2468191   0.4275032   0.2224638), wk =   0.0370370
        k(   21) = (   0.2468191   0.4275032   0.3707729), wk =   0.0370370
        k(   22) = (   0.2468191   0.6175046   0.0741546), wk =   0.0370370
        k(   23) = (   0.2468191   0.6175046   0.2224638), wk =   0.0370370
        k(   24) = (   0.2468191   0.6175046   0.3707729), wk =   0.0370370
        k(   25) = (   0.2468191  -0.3325025   0.0741546), wk =   0.0370370
        k(   26) = (   0.2468191  -0.3325025   0.2224638), wk =   0.0370370
        k(   27) = (   0.2468191  -0.3325025   0.3707729), wk =   0.0370370
        k(   28) = (   0.2468191  -0.1425011   0.0741546), wk =   0.0185185
        k(   29) = (   0.2468191  -0.1425011   0.2224638), wk =   0.0185185
        k(   30) = (   0.2468191  -0.1425011   0.3707729), wk =   0.0185185
        k(   31) = (   0.4113652   0.7125053   0.0741546), wk =   0.0370370
        k(   32) = (   0.4113652   0.7125053   0.2224638), wk =   0.0370370
        k(   33) = (   0.4113652   0.7125053   0.3707729), wk =   0.0370370
        k(   34) = (   0.4113652  -0.2375018   0.0741546), wk =   0.0185185
        k(   35) = (   0.4113652  -0.2375018   0.2224638), wk =   0.0185185
        k(   36) = (   0.4113652  -0.2375018   0.3707729), wk =   0.0185185
        k(   37) = (  -0.0822730  -0.3325025   0.0741546), wk =   0.0370370
        k(   38) = (  -0.0822730  -0.3325025   0.2224638), wk =   0.0370370
        k(   39) = (  -0.0822730  -0.3325025   0.3707729), wk =   0.0370370
        k(   40) = (  -0.0822730  -0.5225039   0.0741546), wk =   0.0370370
        k(   41) = (  -0.0822730  -0.5225039   0.2224638), wk =   0.0370370
        k(   42) = (  -0.0822730  -0.5225039   0.3707729), wk =   0.0370370
        k(   43) = (  -0.0822730   0.4275032   0.0741546), wk =   0.0370370
        k(   44) = (  -0.0822730   0.4275032   0.2224638), wk =   0.0370370
        k(   45) = (  -0.0822730   0.4275032   0.3707729), wk =   0.0370370
        k(   46) = (  -0.0822730   0.2375018   0.0741546), wk =   0.0370370
        k(   47) = (  -0.0822730   0.2375018   0.2224638), wk =   0.0370370
        k(   48) = (  -0.0822730   0.2375018   0.3707729), wk =   0.0370370
        k(   49) = (  -0.0822730   0.0475004   0.0741546), wk =   0.0185185
        k(   50) = (  -0.0822730   0.0475004   0.2224638), wk =   0.0185185
        k(   51) = (  -0.0822730   0.0475004   0.3707729), wk =   0.0185185
        k(   52) = (  -0.2468191  -0.6175046   0.0741546), wk =   0.0370370
        k(   53) = (  -0.2468191  -0.6175046   0.2224638), wk =   0.0370370
        k(   54) = (  -0.2468191  -0.6175046   0.3707729), wk =   0.0370370
        k(   55) = (  -0.2468191   0.3325025   0.0741546), wk =   0.0370370
        k(   56) = (  -0.2468191   0.3325025   0.2224638), wk =   0.0370370
        k(   57) = (  -0.2468191   0.3325025   0.3707729), wk =   0.0370370
        k(   58) = (  -0.2468191   0.1425011   0.0741546), wk =   0.0185185
        k(   59) = (  -0.2468191   0.1425011   0.2224638), wk =   0.0185185
        k(   60) = (  -0.2468191   0.1425011   0.3707729), wk =   0.0185185
        k(   61) = (  -0.4113652   0.2375018   0.0741546), wk =   0.0185185
        k(   62) = (  -0.4113652   0.2375018   0.2224638), wk =   0.0185185
        k(   63) = (  -0.4113652   0.2375018   0.3707729), wk =   0.0185185
     extrapolated charge   20.58304, renormalised to   24.00000

     total cpu time spent up to now is      221.6 secs

     per-process dynamical memory:    18.8 Mb

     Self-consistent Calculation

     iteration #  1     ecut=   100.00 Ry     beta=0.30
     Davidson diagonalization with overlap
     ethr =  1.00E-06,  avg # of iterations =  9.4

     total cpu time spent up to now is      248.1 secs

     total energy              =    -138.41204669 Ry
     Harris-Foulkes estimate   =    -141.81335600 Ry
     estimated scf accuracy    <       2.73021550 Ry

     iteration #  2     ecut=   100.00 Ry     beta=0.30
     Davidson diagonalization with overlap
     ethr =  1.00E-02,  avg # of iterations =  2.0

     total cpu time spent up to now is      259.6 secs

     total energy              =    -139.10609700 Ry
     Harris-Foulkes estimate   =    -139.15865738 Ry
     estimated scf accuracy    <       0.29581989 Ry

     iteration #  3     ecut=   100.00 Ry     beta=0.30
     Davidson diagonalization with overlap
     ethr =  1.23E-03,  avg # of iterations =  1.4

     total cpu time spent up to now is      267.5 secs

     total energy              =    -139.04843142 Ry
     Harris-Foulkes estimate   =    -139.11547009 Ry
     estimated scf accuracy    <       0.14332905 Ry

     iteration #  4     ecut=   100.00 Ry     beta=0.30
     Davidson diagonalization with overlap
     ethr =  5.97E-04,  avg # of iterations =  3.7

     total cpu time spent up to now is      278.0 secs

     total energy              =    -139.13631821 Ry
     Harris-Foulkes estimate   =    -139.14649687 Ry
     estimated scf accuracy    <       0.19420418 Ry

     iteration #  5     ecut=   100.00 Ry     beta=0.30
     Davidson diagonalization with overlap
     ethr =  5.97E-04,  avg # of iterations =  1.0

     total cpu time spent up to now is      285.7 secs

     total energy              =    -139.13559598 Ry
     Harris-Foulkes estimate   =    -139.13681537 Ry
     estimated scf accuracy    <       0.16575068 Ry

     iteration #  6     ecut=   100.00 Ry     beta=0.30
     Davidson diagonalization with overlap
     ethr =  5.97E-04,  avg # of iterations =  1.0

     total cpu time spent up to now is      293.5 secs

     total energy              =    -139.07428914 Ry
     Harris-Foulkes estimate   =    -139.13568356 Ry
     estimated scf accuracy    <       0.15984235 Ry

     iteration #  7     ecut=   100.00 Ry     beta=0.30
     Davidson diagonalization with overlap
     ethr =  5.97E-04,  avg # of iterations =  2.7

     total cpu time spent up to now is      303.2 secs

     total energy              =    -139.11326411 Ry
     Harris-Foulkes estimate   =    -139.11307151 Ry
     estimated scf accuracy    <       0.00290537 Ry

     iteration #  8     ecut=   100.00 Ry     beta=0.30
     Davidson diagonalization with overlap
     ethr =  1.21E-05,  avg # of iterations =  3.9

     total cpu time spent up to now is      314.6 secs

     total energy              =    -139.11752812 Ry
     Harris-Foulkes estimate   =    -139.12008836 Ry
     estimated scf accuracy    <       0.05212670 Ry

     iteration #  9     ecut=   100.00 Ry     beta=0.30
     Davidson diagonalization with overlap
     ethr =  1.21E-05,  avg # of iterations =  1.6

     total cpu time spent up to now is      322.6 secs

     total energy              =    -139.11243431 Ry
     Harris-Foulkes estimate   =    -139.11769066 Ry
     estimated scf accuracy    <       0.03714520 Ry

     iteration # 10     ecut=   100.00 Ry     beta=0.30
     Davidson diagonalization with overlap
     ethr =  1.21E-05,  avg # of iterations =  2.9

     total cpu time spent up to now is      332.5 secs

     total energy              =    -139.11019571 Ry
     Harris-Foulkes estimate   =    -139.11376411 Ry
     estimated scf accuracy    <       0.00699306 Ry

     iteration # 11     ecut=   100.00 Ry     beta=0.30
     Davidson diagonalization with overlap
     ethr =  1.21E-05,  avg # of iterations =  3.7

     total cpu time spent up to now is      344.1 secs

     total energy              =    -139.11412141 Ry
     Harris-Foulkes estimate   =    -139.11400788 Ry
     estimated scf accuracy    <       0.00467450 Ry

     iteration # 12     ecut=   100.00 Ry     beta=0.30
     Davidson diagonalization with overlap
     ethr =  1.21E-05,  avg # of iterations =  1.0

     total cpu time spent up to now is      351.9 secs

     total energy              =    -139.11382325 Ry
     Harris-Foulkes estimate   =    -139.11412691 Ry
     estimated scf accuracy    <       0.00496706 Ry

     iteration # 13     ecut=   100.00 Ry     beta=0.30
     Davidson diagonalization with overlap
     ethr =  1.21E-05,  avg # of iterations =  1.0

     total cpu time spent up to now is      359.7 secs

     total energy              =    -139.11298851 Ry
     Harris-Foulkes estimate   =    -139.11382926 Ry
     estimated scf accuracy    <       0.00424047 Ry

     iteration # 14     ecut=   100.00 Ry     beta=0.30
     Davidson diagonalization with overlap
     ethr =  1.21E-05,  avg # of iterations =  1.5

     total cpu time spent up to now is      367.6 secs

     total energy              =    -139.11310823 Ry
     Harris-Foulkes estimate   =    -139.11310374 Ry
     estimated scf accuracy    <       0.00162857 Ry

     iteration # 15     ecut=   100.00 Ry     beta=0.30
     Davidson diagonalization with overlap
     ethr =  6.79E-06,  avg # of iterations =  1.0

     total cpu time spent up to now is      375.3 secs

     total energy              =    -139.11305889 Ry
     Harris-Foulkes estimate   =    -139.11311869 Ry
     estimated scf accuracy    <       0.00164148 Ry

     iteration # 16     ecut=   100.00 Ry     beta=0.30
     Davidson diagonalization with overlap
     ethr =  6.79E-06,  avg # of iterations =  1.0

     total cpu time spent up to now is      383.1 secs

     total energy              =    -139.11278672 Ry
     Harris-Foulkes estimate   =    -139.11306386 Ry
     estimated scf accuracy    <       0.00140444 Ry

     iteration # 17     ecut=   100.00 Ry     beta=0.30
     Davidson diagonalization with overlap
     ethr =  5.85E-06,  avg # of iterations =  1.9

     total cpu time spent up to now is      391.1 secs

     total energy              =    -139.11285302 Ry
     Harris-Foulkes estimate   =    -139.11288772 Ry
     estimated scf accuracy    <       0.00028690 Ry

     iteration # 18     ecut=   100.00 Ry     beta=0.30
     Davidson diagonalization with overlap
     ethr =  1.20E-06,  avg # of iterations =  1.7

     total cpu time spent up to now is      399.1 secs

     total energy              =    -139.11282249 Ry
     Harris-Foulkes estimate   =    -139.11287128 Ry
     estimated scf accuracy    <       0.00014705 Ry

     iteration # 19     ecut=   100.00 Ry     beta=0.30
     Davidson diagonalization with overlap
     ethr =  6.13E-07,  avg # of iterations =  3.3

     total cpu time spent up to now is      408.4 secs

     total energy              =    -139.11286431 Ry
     Harris-Foulkes estimate   =    -139.11286200 Ry
     estimated scf accuracy    <       0.00001827 Ry

     iteration # 20     ecut=   100.00 Ry     beta=0.30
     Davidson diagonalization with overlap
     ethr =  7.61E-08,  avg # of iterations =  2.1

     total cpu time spent up to now is      416.6 secs

     total energy              =    -139.11286341 Ry
     Harris-Foulkes estimate   =    -139.11286569 Ry
     estimated scf accuracy    <       0.00002656 Ry

     iteration # 21     ecut=   100.00 Ry     beta=0.30
     Davidson diagonalization with overlap
     ethr =  7.61E-08,  avg # of iterations =  1.0

     total cpu time spent up to now is      424.5 secs

     total energy              =    -139.11286183 Ry
     Harris-Foulkes estimate   =    -139.11286350 Ry
     estimated scf accuracy    <       0.00002196 Ry

     iteration # 22     ecut=   100.00 Ry     beta=0.30
     Davidson diagonalization with overlap
     ethr =  7.61E-08,  avg # of iterations =  1.1

     total cpu time spent up to now is      432.3 secs

     total energy              =    -139.11286190 Ry
     Harris-Foulkes estimate   =    -139.11286200 Ry
     estimated scf accuracy    <       0.00001671 Ry

     iteration # 23     ecut=   100.00 Ry     beta=0.30
     Davidson diagonalization with overlap
     ethr =  6.96E-08,  avg # of iterations =  1.0

     total cpu time spent up to now is      440.5 secs

     total energy              =    -139.11286119 Ry
     Harris-Foulkes estimate   =    -139.11286193 Ry
     estimated scf accuracy    <       0.00001678 Ry

     iteration # 24     ecut=   100.00 Ry     beta=0.30
     Davidson diagonalization with overlap
     ethr =  6.96E-08,  avg # of iterations =  1.0

     total cpu time spent up to now is      448.2 secs

     total energy              =    -139.11286145 Ry
     Harris-Foulkes estimate   =    -139.11286121 Ry
     estimated scf accuracy    <       0.00001471 Ry

     iteration # 25     ecut=   100.00 Ry     beta=0.30
     Davidson diagonalization with overlap
     ethr =  6.13E-08,  avg # of iterations =  1.0

     total cpu time spent up to now is      455.9 secs

     total energy              =    -139.11286140 Ry
     Harris-Foulkes estimate   =    -139.11286146 Ry
     estimated scf accuracy    <       0.00001525 Ry

     iteration # 26     ecut=   100.00 Ry     beta=0.30
     Davidson diagonalization with overlap
     ethr =  6.13E-08,  avg # of iterations =  1.0

     total cpu time spent up to now is      463.7 secs

     total energy              =    -139.11286288 Ry
     Harris-Foulkes estimate   =    -139.11286142 Ry
     estimated scf accuracy    <       0.00001520 Ry

     iteration # 27     ecut=   100.00 Ry     beta=0.30
     Davidson diagonalization with overlap
     ethr =  6.13E-08,  avg # of iterations =  1.2

     total cpu time spent up to now is      471.8 secs

     total energy              =    -139.11286158 Ry
     Harris-Foulkes estimate   =    -139.11286343 Ry
     estimated scf accuracy    <       0.00002078 Ry

     iteration # 28     ecut=   100.00 Ry     beta=0.30
     Davidson diagonalization with overlap
     ethr =  6.13E-08,  avg # of iterations =  1.0

     total cpu time spent up to now is      479.6 secs

     total energy              =    -139.11286160 Ry
     Harris-Foulkes estimate   =    -139.11286170 Ry
     estimated scf accuracy    <       0.00001526 Ry

     iteration # 29     ecut=   100.00 Ry     beta=0.30
     Davidson diagonalization with overlap
     ethr =  6.13E-08,  avg # of iterations =  1.0

     total cpu time spent up to now is      487.3 secs

     total energy              =    -139.11286044 Ry
     Harris-Foulkes estimate   =    -139.11286161 Ry
     estimated scf accuracy    <       0.00001486 Ry

     iteration # 30     ecut=   100.00 Ry     beta=0.30
     Davidson diagonalization with overlap
     ethr =  6.13E-08,  avg # of iterations =  1.0

     total cpu time spent up to now is      495.1 secs

     total energy              =    -139.11286113 Ry
     Harris-Foulkes estimate   =    -139.11286048 Ry
     estimated scf accuracy    <       0.00001145 Ry

     iteration # 31     ecut=   100.00 Ry     beta=0.30
     Davidson diagonalization with overlap
     ethr =  4.77E-08,  avg # of iterations =  1.0

     total cpu time spent up to now is      502.9 secs

     total energy              =    -139.11285558 Ry
     Harris-Foulkes estimate   =    -139.11286116 Ry
     estimated scf accuracy    <       0.00001343 Ry

     iteration # 32     ecut=   100.00 Ry     beta=0.30
     Davidson diagonalization with overlap
     ethr =  4.77E-08,  avg # of iterations =  2.4

     total cpu time spent up to now is      513.3 secs

     total energy              =    -139.11285773 Ry
     Harris-Foulkes estimate   =    -139.11285788 Ry
     estimated scf accuracy    <       0.00000239 Ry

     iteration # 33     ecut=   100.00 Ry     beta=0.30
     Davidson diagonalization with overlap
     ethr =  9.97E-09,  avg # of iterations =  1.5

     total cpu time spent up to now is      521.2 secs

     total energy              =    -139.11285771 Ry
     Harris-Foulkes estimate   =    -139.11285781 Ry
     estimated scf accuracy    <       0.00000179 Ry

     iteration # 34     ecut=   100.00 Ry     beta=0.30
     Davidson diagonalization with overlap
     ethr =  7.46E-09,  avg # of iterations =  1.0

     total cpu time spent up to now is      529.0 secs

     total energy              =    -139.11285772 Ry
     Harris-Foulkes estimate   =    -139.11285772 Ry
     estimated scf accuracy    <       0.00000146 Ry

     iteration # 35     ecut=   100.00 Ry     beta=0.30
     Davidson diagonalization with overlap
     ethr =  6.10E-09,  avg # of iterations =  1.0

     total cpu time spent up to now is      536.8 secs

     total energy              =    -139.11285743 Ry
     Harris-Foulkes estimate   =    -139.11285773 Ry
     estimated scf accuracy    <       0.00000141 Ry

     iteration # 36     ecut=   100.00 Ry     beta=0.30
     Davidson diagonalization with overlap
     ethr =  5.88E-09,  avg # of iterations =  2.0

     total cpu time spent up to now is      544.7 secs

     End of self-consistent calculation

          k = 0.0823 0.1425 0.0742 (  3927 PWs)   bands (ev):

   -27.1537 -10.1039  -8.5439  -8.3564  -8.0218  -3.2538   4.0966   7.5848
     8.2756   8.4607  12.8396  13.1421

          k = 0.0823 0.1425 0.2225 (  3931 PWs)   bands (ev):

   -27.1363 -10.5539  -8.5456  -8.3401  -7.4558  -3.2008   3.2562   7.6395
     8.0542   8.3343  13.0915  13.7175

          k = 0.0823 0.1425 0.3708 (  3917 PWs)   bands (ev):

   -27.1187 -10.8945  -8.5175  -8.3237  -7.0163  -3.1468   2.5493   7.6604
     7.7331   8.3395  13.0874  13.5195

          k = 0.0823 0.3325 0.0742 (  3923 PWs)   bands (ev):

   -27.0645 -10.2060  -8.5215  -8.4612  -7.5224  -4.5582   4.3274   6.9283
     7.5333   8.9770  13.1370  14.3427

          k = 0.0823 0.3325 0.2225 (  3919 PWs)   bands (ev):

   -27.0504 -10.1491  -8.8131  -8.4819  -7.2990  -4.5405   3.9361   6.9195
     6.9936   8.9477  13.3549  14.9543

          k = 0.0823 0.3325 0.3708 (  3914 PWs)   bands (ev):

   -27.0362 -10.1144  -9.0045  -8.4510  -7.2333  -4.4915   3.5853   6.5581
     6.9113   8.9414  13.5290  14.8708

          k = 0.0823 0.5225 0.0742 (  3919 PWs)   bands (ev):

   -26.9979 -10.3137  -8.6474  -8.3142  -6.7750  -5.8403   4.6714   6.4763
     6.7162   9.0404  13.8790  15.2854

          k = 0.0823 0.5225 0.2225 (  3926 PWs)   bands (ev):

   -26.9864 -10.0030  -8.6395  -8.5237  -7.2005  -5.7055   4.7409   5.9229
     6.5570   9.1780  13.8664  15.5933

          k = 0.0823 0.5225 0.3708 (  3917 PWs)   bands (ev):

   -26.9748  -9.5183  -8.8396  -8.5433  -7.7893  -5.5495   4.7487   5.4212
     6.4898   9.3765  13.8004  15.6263

          k = 0.0823-0.4275 0.0742 (  3917 PWs)   bands (ev):

   -27.0224 -10.2651  -8.6037  -8.3746  -7.1867  -5.2373   4.4731   6.6870
     7.0698   9.0918  13.4825  14.8182

          k = 0.0823-0.4275 0.2225 (  3915 PWs)   bands (ev):

   -27.0099 -10.0068  -8.7685  -8.5366  -7.2758  -5.1945   4.2829   6.4750
     6.7294   9.1976  13.5163  15.1593

          k = 0.0823-0.4275 0.3708 (  3914 PWs)   bands (ev):

   -26.9974  -9.6129  -9.1592  -8.5086  -7.4775  -5.1384   4.1451   6.0095
     6.6528   9.2580  13.6383  15.2576

          k = 0.0823-0.2375 0.0742 (  3935 PWs)   bands (ev):

   -27.1126 -10.1370  -8.5441  -8.4279  -7.8073  -3.8443   4.1648   7.2866
     8.0773   8.7168  12.9991  13.4346

          k = 0.0823-0.2375 0.2225 (  3920 PWs)   bands (ev):

   -27.0967 -10.3478  -8.7342  -8.4057  -7.3769  -3.7953   3.5179   7.3206
     7.6208   8.6815  13.1558  14.1404

          k = 0.0823-0.2375 0.3708 (  3930 PWs)   bands (ev):

   -27.0807 -10.5646  -8.7627  -8.3828  -7.0993  -3.7507   2.9950   7.1728
     7.3247   8.6316  13.2984  14.0992

          k = 0.0823-0.0475 0.0742 (  3953 PWs)   bands (ev):

   -27.1774 -10.0940  -8.4929  -8.3185  -8.1695  -2.9034   4.0654   7.7483
     8.0005   8.6503  12.5092  13.2894

          k = 0.0823-0.0475 0.2225 (  3924 PWs)   bands (ev):

   -27.1589 -10.6704  -8.3942  -8.3049  -7.5294  -2.8533   3.1078   7.8239
     8.0953   8.3527  13.0533  13.4573

          k = 0.0823-0.0475 0.3708 (  3900 PWs)   bands (ev):

   -27.1404 -11.0642  -8.3649  -8.2915  -6.9798  -2.8018   2.2970   7.9327
     8.0229   8.1893  12.9238  13.1608

          k = 0.2468 0.4275 0.0742 (  3913 PWs)   bands (ev):

   -26.9981 -10.0886  -9.0173  -8.3140  -6.8944  -5.5190   4.7543   5.8434
     6.5323  10.5335  12.7430  15.6604

          k = 0.2468 0.4275 0.2225 (  3920 PWs)   bands (ev):

   -26.9866  -9.8275  -8.8951  -8.5678  -7.1209  -5.6502   4.5882   6.1053
     6.1262  10.3911  12.8338  15.7751

          k = 0.2468 0.4275 0.3708 (  3907 PWs)   bands (ev):

   -26.9749  -9.3985  -8.9443  -8.7540  -7.3990  -5.7957   4.5085   5.7686
     6.3018  10.2399  12.9211  15.7223

          k = 0.2468 0.6175 0.0742 (  3906 PWs)   bands (ev):

   -26.9801  -9.9625  -9.2595  -8.2728  -6.5532  -5.9188   5.0653   5.5575
     6.0676  11.0092  12.6297  16.0096

          k = 0.2468 0.6175 0.2225 (  3912 PWs)   bands (ev):

   -26.9693  -9.6865  -9.0965  -8.4396  -6.9306  -6.1115   4.9716   5.6771
     5.9145  10.9184  12.5901  16.0253

          k = 0.2468 0.6175 0.3708 (  3912 PWs)   bands (ev):

   -26.9584  -9.2921  -8.9019  -8.6349  -7.3985  -6.3317   4.9206   5.4270
     6.1535  10.8059  12.5466  15.9127

          k = 0.2468-0.3325 0.0742 (  3914 PWs)   bands (ev):

   -27.0290 -10.1829  -8.7345  -8.3852  -7.2351  -5.0483   4.4936   6.3358
     7.0710   9.7583  12.9544  14.9903

          k = 0.2468-0.3325 0.2225 (  3928 PWs)   bands (ev):

   -27.0163  -9.9910  -8.7329  -8.6560  -7.2371  -5.0888   4.2322   6.4755
     6.5773   9.6335  13.1505  15.3834

          k = 0.2468-0.3325 0.3708 (  3919 PWs)   bands (ev):

   -27.0035  -9.7206  -9.0708  -8.5882  -7.3314  -5.1178   4.0393   6.1513
     6.5722   9.5347  13.3060  15.3602

          k = 0.2468-0.1425 0.0742 (  3925 PWs)   bands (ev):

   -27.0950 -10.1777  -8.5214  -8.4210  -7.7193  -4.1211   4.2337   7.3119
     7.8546   8.5825  13.1272  13.8322

          k = 0.2468-0.1425 0.2225 (  3928 PWs)   bands (ev):

   -27.0798 -10.2815  -8.7906  -8.4026  -7.3415  -4.0839   3.7007   7.2299
     7.3428   8.6147  13.3051  14.5989

          k = 0.2468-0.1425 0.3708 (  3925 PWs)   bands (ev):

   -27.0645 -10.4124  -8.8728  -8.3846  -7.1446  -4.0175   3.2198   6.9328
     7.1856   8.6366  13.4910  14.4276

          k = 0.4114 0.7125 0.0742 (  3910 PWs)   bands (ev):

   -26.9866 -10.1693  -8.9436  -8.2866  -6.6085  -5.9385   4.8627   5.8879
     6.3822  10.0522  13.3154  15.6064

          k = 0.4114 0.7125 0.2225 (  3917 PWs)   bands (ev):

   -26.9755  -9.8653  -8.8504  -8.4680  -7.0802  -5.9306   4.8934   5.7106
     6.2076  10.0475  13.2729  15.8435

          k = 0.4114 0.7125 0.3708 (  3925 PWs)   bands (ev):

   -26.9644  -9.4207  -8.7434  -8.6458  -7.6878  -5.9380   4.9270   5.3357
     6.2871  10.0700  13.2091  15.8127

          k = 0.4114-0.2375 0.0742 (  3928 PWs)   bands (ev):

   -27.0110 -10.3419  -8.5214  -8.3495  -7.0000  -5.5785   4.5624   6.8884
     6.9654   8.5181  13.9978  15.2029

          k = 0.4114-0.2375 0.2225 (  3928 PWs)   bands (ev):

   -26.9990 -10.0533  -8.6641  -8.4987  -7.2425  -5.4675   4.5603   6.1626
     6.7930   8.7752  14.0486  15.4122

          k = 0.4114-0.2375 0.3708 (  3911 PWs)   bands (ev):

   -26.9869  -9.5774  -9.0427  -8.4761  -7.6620  -5.2860   4.4533   5.6760
     6.6403   9.0540  14.0142  15.4359

          k =-0.0823-0.3325 0.0742 (  3923 PWs)   bands (ev):

   -27.0645 -10.1975  -8.5314  -8.4600  -7.5348  -4.5411   4.2904   6.9603
     7.5816   9.0189  13.1013  14.1704

          k =-0.0823-0.3325 0.2225 (  3919 PWs)   bands (ev):

   -27.0504 -10.1279  -8.8393  -8.4804  -7.3204  -4.5060   3.8693   6.9677
     7.0835   9.0215  13.2703  14.6682

          k =-0.0823-0.3325 0.3708 (  3914 PWs)   bands (ev):

   -27.0362 -10.1018  -9.0196  -8.4508  -7.2430  -4.4744   3.5533   6.5926
     6.9403   8.9738  13.4862  14.7299

          k =-0.0823-0.5225 0.0742 (  3919 PWs)   bands (ev):

   -26.9979 -10.3104  -8.6488  -8.3149  -6.7969  -5.8177   4.6482   6.5036
     6.7258   9.0587  13.8509  15.1764

          k =-0.0823-0.5225 0.2225 (  3926 PWs)   bands (ev):

   -26.9864  -9.9917  -8.6535  -8.5217  -7.2234  -5.6785   4.6772   5.9938
     6.5713   9.2203  13.7854  15.4971

          k =-0.0823-0.5225 0.3708 (  3917 PWs)   bands (ev):

   -26.9748  -9.5005  -8.8640  -8.5403  -7.7933  -5.5402   4.6994   5.4716
     6.4976   9.4012  13.7523  15.5784

          k =-0.0823 0.4275 0.0742 (  3917 PWs)   bands (ev):

   -27.0224 -10.2733  -8.5996  -8.3722  -7.1627  -5.2640   4.5180   6.6491
     7.0272   9.0461  13.5441  15.0531

          k =-0.0823 0.4275 0.2225 (  3915 PWs)   bands (ev):

   -27.0099 -10.0332  -8.7327  -8.5426  -7.2410  -5.2413   4.3759   6.3669
     6.6876   9.1019  13.6782  15.4032

          k =-0.0823 0.4275 0.3708 (  3914 PWs)   bands (ev):

   -26.9974  -9.6537  -9.1126  -8.5100  -7.4663  -5.1583   4.1940   5.9579
     6.6316   9.2083  13.7283  15.3791

          k =-0.0823 0.2375 0.0742 (  3935 PWs)   bands (ev):

   -27.1126 -10.1414  -8.5375  -8.4289  -7.8043  -3.8509   4.1821   7.2643
     8.0488   8.7098  12.9781  13.4989

          k =-0.0823 0.2375 0.2225 (  3920 PWs)   bands (ev):

   -27.0967 -10.3549  -8.7258  -8.4055  -7.3694  -3.8097   3.5467   7.2789
     7.5796   8.6709  13.1170  14.3459

          k =-0.0823 0.2375 0.3708 (  3930 PWs)   bands (ev):

   -27.0807 -10.5674  -8.7594  -8.3826  -7.0951  -3.7585   3.0083   7.1595
     7.2999   8.6289  13.2795  14.1986

          k =-0.0823 0.0475 0.0742 (  3953 PWs)   bands (ev):

   -27.1774 -10.0933  -8.4944  -8.3188  -8.1689  -2.9024   4.0623   7.7767
     7.9784   8.6528  12.5010  13.3863

          k =-0.0823 0.0475 0.2225 (  3924 PWs)   bands (ev):

   -27.1590 -10.6696  -8.3945  -8.3054  -7.5303  -2.8510   3.1030   7.8852
     8.0404   8.3594  13.2323  13.2533

          k =-0.0823 0.0475 0.3708 (  3900 PWs)   bands (ev):

   -27.1405 -11.0639  -8.3648  -8.2918  -6.9804  -2.8004   2.2949   7.9661
     8.0143   8.1706  13.0259  13.0466

          k =-0.2468-0.6175 0.0742 (  3906 PWs)   bands (ev):

   -26.9801  -9.9636  -9.2584  -8.2728  -6.5485  -5.9237   5.0786   5.5433
     6.0666  10.9989  12.6436  16.0173

          k =-0.2468-0.6175 0.2225 (  3912 PWs)   bands (ev):

   -26.9693  -9.6904  -9.0924  -8.4397  -6.9238  -6.1189   4.9906   5.6548
     5.9146  10.8963  12.6199  16.0412

          k =-0.2468-0.6175 0.3708 (  3912 PWs)   bands (ev):

   -26.9584  -9.2977  -8.8937  -8.6371  -7.3962  -6.3346   4.9302   5.4189
     6.1507  10.7940  12.5628  15.9202

          k =-0.2468 0.3325 0.0742 (  3914 PWs)   bands (ev):

   -27.0290 -10.1787  -8.7380  -8.3856  -7.2435  -5.0382   4.4730   6.3531
     7.0894   9.7883  12.9111  14.8935

          k =-0.2468 0.3325 0.2225 (  3928 PWs)   bands (ev):

   -27.0163  -9.9785  -8.7663  -8.6370  -7.2506  -5.0698   4.1953   6.4940
     6.6211   9.6886  13.0629  15.2765

          k =-0.2468 0.3325 0.3708 (  3919 PWs)   bands (ev):

   -27.0035  -9.7069  -9.0883  -8.5860  -7.3368  -5.1089   4.0210   6.1667
     6.5863   9.5600  13.2624  15.3072

          k =-0.2468 0.1425 0.0742 (  3925 PWs)   bands (ev):

   -27.0950 -10.1682  -8.5322  -8.4215  -7.7285  -4.1050   4.1949   7.3537
     7.9218   8.6027  13.1609  13.6628

          k =-0.2468 0.1425 0.2225 (  3928 PWs)   bands (ev):

   -27.0798 -10.2630  -8.8116  -8.4036  -7.3606  -4.0498   3.6333   7.3122
     7.4354   8.6548  13.3580  14.1616

          k =-0.2468 0.1425 0.3708 (  3925 PWs)   bands (ev):

   -27.0645 -10.4043  -8.8823  -8.3851  -7.1544  -3.9995   3.1884   6.9710
     7.2261   8.6529  13.5191  14.2124

          k =-0.4114 0.2375 0.0742 (  3928 PWs)   bands (ev):

   -27.0110 -10.3351  -8.5216  -8.3534  -7.0317  -5.5456   4.5208   6.9471
     6.9818   8.5508  13.9737  14.8958

          k =-0.4114 0.2375 0.2225 (  3928 PWs)   bands (ev):

   -26.9990 -10.0304  -8.6888  -8.4992  -7.2817  -5.4183   4.4573   6.2842
     6.8238   8.8536  13.9117  15.1890

          k =-0.4114 0.2375 0.3708 (  3911 PWs)   bands (ev):

   -26.9869  -9.5349  -9.0908  -8.4763  -7.6709  -5.2674   4.3908   5.7438
     6.6548   9.0989  13.9291  15.3266

!    total energy              =    -139.11285736 Ry
     Harris-Foulkes estimate   =    -139.11285755 Ry
     estimated scf accuracy    <       0.00000025 Ry

     The total energy is the sum of the following terms:

     one-electron contribution =     -15.78496709 Ry
     hartree contribution      =      24.34040220 Ry
     xc contribution           =     -26.57767703 Ry
     ewald contribution        =    -121.09061543 Ry

     convergence has been achieved in  36 iterations

     Forces acting on atoms (Ry/au):

     atom    1 type  3   force =     0.00000000    0.00000000    0.00371450
     atom    2 type  2   force =    -0.00000000   -0.00000000   -0.31446719
     atom    3 type  2   force =     0.00000000   -0.00000000    0.28553755
     atom    4 type  1   force =    -0.00000000   -0.00000000    0.06652448
     atom    5 type  1   force =     0.00000000    0.00000000   -0.04130934

     Total force =     0.431934     Total SCF correction =     0.000323


     entering subroutine stress ...

          total   stress  (Ry/bohr**3)                   (kbar)     P= 1287.11
   0.01168392   0.00000000  -0.00000000       1718.76      0.00     -0.00
   0.00000000   0.01168392   0.00000000          0.00   1718.76      0.00
  -0.00000000   0.00000000   0.00288099         -0.00      0.00    423.81


     number of scf cycles    =   2
     number of bfgs steps    =   1

     enthalpy old            =    -137.1607949253 Ry
     enthalpy new            =    -137.4738520068 Ry

     CASE: enthalpy_new < enthalpy_old


     WARNING: bfgs curvature condition failed, Theta= 0.774
     new trust radius        =       0.5778044279 bohr
     new conv_thr            =       0.0000010000 Ry

     new unit-cell volume =    161.49678 a.u.^3 (    23.93135 Ang^3 )

CELL_PARAMETERS (alat=  5.86000000)
   1.017707586  -0.000000000   0.000000000
  -0.508853793   0.881360623  -0.000000000
  -0.000000000   0.000000000   0.894734868

ATOMIC_POSITIONS (crystal)
Ca       0.000000000   0.000000000   0.000369042
O        0.333333333   0.666666667   0.422753078
O        0.666666667   0.333333333   0.584043253
H        0.333333333   0.666666667   0.721417905
H        0.666666667   0.333333333   0.281416722



     Writing output data file CaOH2_ambient.save
     NEW-OLD atomic charge density approx. for the potential
     NEW k-points:
        k(    1) = (   0.0818834   0.1418262   0.0931375), wk =   0.0370370
        k(    2) = (   0.0818834   0.1418262   0.2794124), wk =   0.0370370
        k(    3) = (   0.0818834   0.1418262   0.4656873), wk =   0.0370370
        k(    4) = (   0.0818834   0.3309277   0.0931375), wk =   0.0370370
        k(    5) = (   0.0818834   0.3309277   0.2794124), wk =   0.0370370
        k(    6) = (   0.0818834   0.3309277   0.4656873), wk =   0.0370370
        k(    7) = (   0.0818834   0.5200293   0.0931375), wk =   0.0370370
        k(    8) = (   0.0818834   0.5200293   0.2794124), wk =   0.0370370
        k(    9) = (   0.0818834   0.5200293   0.4656873), wk =   0.0370370
        k(   10) = (   0.0818834  -0.4254785   0.0931375), wk =   0.0370370
        k(   11) = (   0.0818834  -0.4254785   0.2794124), wk =   0.0370370
        k(   12) = (   0.0818834  -0.4254785   0.4656873), wk =   0.0370370
        k(   13) = (   0.0818834  -0.2363769   0.0931375), wk =   0.0370370
        k(   14) = (   0.0818834  -0.2363769   0.2794124), wk =   0.0370370
        k(   15) = (   0.0818834  -0.2363769   0.4656873), wk =   0.0370370
        k(   16) = (   0.0818834  -0.0472754   0.0931375), wk =   0.0185185
        k(   17) = (   0.0818834  -0.0472754   0.2794124), wk =   0.0185185
        k(   18) = (   0.0818834  -0.0472754   0.4656873), wk =   0.0185185
        k(   19) = (   0.2456501   0.4254785   0.0931375), wk =   0.0370370
        k(   20) = (   0.2456501   0.4254785   0.2794124), wk =   0.0370370
        k(   21) = (   0.2456501   0.4254785   0.4656873), wk =   0.0370370
        k(   22) = (   0.2456501   0.6145801   0.0931375), wk =   0.0370370
        k(   23) = (   0.2456501   0.6145801   0.2794124), wk =   0.0370370
        k(   24) = (   0.2456501   0.6145801   0.4656873), wk =   0.0370370
        k(   25) = (   0.2456501  -0.3309277   0.0931375), wk =   0.0370370
        k(   26) = (   0.2456501  -0.3309277   0.2794124), wk =   0.0370370
        k(   27) = (   0.2456501  -0.3309277   0.4656873), wk =   0.0370370
        k(   28) = (   0.2456501  -0.1418262   0.0931375), wk =   0.0185185
        k(   29) = (   0.2456501  -0.1418262   0.2794124), wk =   0.0185185
        k(   30) = (   0.2456501  -0.1418262   0.4656873), wk =   0.0185185
        k(   31) = (   0.4094169   0.7091308   0.0931375), wk =   0.0370370
        k(   32) = (   0.4094169   0.7091308   0.2794124), wk =   0.0370370
        k(   33) = (   0.4094169   0.7091308   0.4656873), wk =   0.0370370
        k(   34) = (   0.4094169  -0.2363769   0.0931375), wk =   0.0185185
        k(   35) = (   0.4094169  -0.2363769   0.2794124), wk =   0.0185185
        k(   36) = (   0.4094169  -0.2363769   0.4656873), wk =   0.0185185
        k(   37) = (  -0.0818834  -0.3309277   0.0931375), wk =   0.0370370
        k(   38) = (  -0.0818834  -0.3309277   0.2794124), wk =   0.0370370
        k(   39) = (  -0.0818834  -0.3309277   0.4656873), wk =   0.0370370
        k(   40) = (  -0.0818834  -0.5200293   0.0931375), wk =   0.0370370
        k(   41) = (  -0.0818834  -0.5200293   0.2794124), wk =   0.0370370
        k(   42) = (  -0.0818834  -0.5200293   0.4656873), wk =   0.0370370
        k(   43) = (  -0.0818834   0.4254785   0.0931375), wk =   0.0370370
        k(   44) = (  -0.0818834   0.4254785   0.2794124), wk =   0.0370370
        k(   45) = (  -0.0818834   0.4254785   0.4656873), wk =   0.0370370
        k(   46) = (  -0.0818834   0.2363769   0.0931375), wk =   0.0370370
        k(   47) = (  -0.0818834   0.2363769   0.2794124), wk =   0.0370370
        k(   48) = (  -0.0818834   0.2363769   0.4656873), wk =   0.0370370
        k(   49) = (  -0.0818834   0.0472754   0.0931375), wk =   0.0185185
        k(   50) = (  -0.0818834   0.0472754   0.2794124), wk =   0.0185185
        k(   51) = (  -0.0818834   0.0472754   0.4656873), wk =   0.0185185
        k(   52) = (  -0.2456501  -0.6145801   0.0931375), wk =   0.0370370
        k(   53) = (  -0.2456501  -0.6145801   0.2794124), wk =   0.0370370
        k(   54) = (  -0.2456501  -0.6145801   0.4656873), wk =   0.0370370
        k(   55) = (  -0.2456501   0.3309277   0.0931375), wk =   0.0370370
        k(   56) = (  -0.2456501   0.3309277   0.2794124), wk =   0.0370370
        k(   57) = (  -0.2456501   0.3309277   0.4656873), wk =   0.0370370
        k(   58) = (  -0.2456501   0.1418262   0.0931375), wk =   0.0185185
        k(   59) = (  -0.2456501   0.1418262   0.2794124), wk =   0.0185185
        k(   60) = (  -0.2456501   0.1418262   0.4656873), wk =   0.0185185
        k(   61) = (  -0.4094169   0.2363769   0.0931375), wk =   0.0185185
        k(   62) = (  -0.4094169   0.2363769   0.2794124), wk =   0.0185185
        k(   63) = (  -0.4094169   0.2363769   0.4656873), wk =   0.0185185
     extrapolated charge   18.62933, renormalised to   24.00000

     total cpu time spent up to now is      626.1 secs

     per-process dynamical memory:    18.8 Mb

     Self-consistent Calculation

     iteration #  1     ecut=   100.00 Ry     beta=0.30
     Davidson diagonalization with overlap
     ethr =  1.00E-06,  avg # of iterations =  7.9

     total cpu time spent up to now is      652.3 secs

     total energy              =    -137.92249189 Ry
     Harris-Foulkes estimate   =    -140.61880376 Ry
     estimated scf accuracy    <       2.80194361 Ry

     iteration #  2     ecut=   100.00 Ry     beta=0.30
     Davidson diagonalization with overlap
     ethr =  1.00E-02,  avg # of iterations =  2.0

     total cpu time spent up to now is      664.3 secs

     total energy              =    -139.06141421 Ry
     Harris-Foulkes estimate   =    -139.08831194 Ry
     estimated scf accuracy    <       0.14157466 Ry

     iteration #  3     ecut=   100.00 Ry     beta=0.30
     Davidson diagonalization with overlap
     ethr =  5.90E-04,  avg # of iterations =  1.8

     total cpu time spent up to now is      672.4 secs

     total energy              =    -139.02272707 Ry
     Harris-Foulkes estimate   =    -139.06735964 Ry
     estimated scf accuracy    <       0.08222570 Ry

     iteration #  4     ecut=   100.00 Ry     beta=0.30
     Davidson diagonalization with overlap
     ethr =  3.43E-04,  avg # of iterations =  2.0

     total cpu time spent up to now is      683.2 secs

     total energy              =    -139.03557312 Ry
     Harris-Foulkes estimate   =    -139.03578021 Ry
     estimated scf accuracy    <       0.00203497 Ry

     iteration #  5     ecut=   100.00 Ry     beta=0.30
     Davidson diagonalization with overlap
     ethr =  8.48E-06,  avg # of iterations =  1.7

     total cpu time spent up to now is      691.5 secs

     total energy              =    -139.03540186 Ry
     Harris-Foulkes estimate   =    -139.03567119 Ry
     estimated scf accuracy    <       0.00116803 Ry

     iteration #  6     ecut=   100.00 Ry     beta=0.30
     Davidson diagonalization with overlap
     ethr =  4.87E-06,  avg # of iterations =  2.0

     total cpu time spent up to now is      699.7 secs

     total energy              =    -139.03548811 Ry
     Harris-Foulkes estimate   =    -139.03549147 Ry
     estimated scf accuracy    <       0.00002215 Ry

     iteration #  7     ecut=   100.00 Ry     beta=0.30
     Davidson diagonalization with overlap
     ethr =  9.23E-08,  avg # of iterations =  2.9

     total cpu time spent up to now is      710.4 secs

     total energy              =    -139.03548890 Ry
     Harris-Foulkes estimate   =    -139.03549325 Ry
     estimated scf accuracy    <       0.00001160 Ry

     iteration #  8     ecut=   100.00 Ry     beta=0.30
     Davidson diagonalization with overlap
     ethr =  4.83E-08,  avg # of iterations =  2.0

     total cpu time spent up to now is      721.1 secs

     total energy              =    -139.03549064 Ry
     Harris-Foulkes estimate   =    -139.03549113 Ry
     estimated scf accuracy    <       0.00000194 Ry

     iteration #  9     ecut=   100.00 Ry     beta=0.30
     Davidson diagonalization with overlap
     ethr =  8.08E-09,  avg # of iterations =  1.1

     total cpu time spent up to now is      728.8 secs

     End of self-consistent calculation

          k = 0.0819 0.1418 0.0931 (  3927 PWs)   bands (ev):

   -23.1693  -7.6924  -4.4178  -4.2647  -3.5997  -1.4738   8.5302  10.3491
    11.0418  11.5374  16.4081  17.1958

          k = 0.0819 0.1418 0.2794 (  3931 PWs)   bands (ev):

   -23.0173  -8.0956  -4.5855  -4.2863  -3.0676  -1.2347   6.6988  10.4916
    10.6255  11.3150  16.0111  16.8593

          k = 0.0819 0.1418 0.4657 (  3917 PWs)   bands (ev):

   -22.8580  -8.5956  -4.4564  -4.1507  -2.8161  -0.9740   5.2830   9.5403
    10.8741  11.4298  15.8720  16.3163

          k = 0.0819 0.3309 0.0931 (  3923 PWs)   bands (ev):

   -23.0334  -8.0889  -4.8292  -4.0636  -3.1804  -2.1779   8.6715  10.1680
    10.9312  12.2305  16.0952  18.0187

          k = 0.0819 0.3309 0.2794 (  3919 PWs)   bands (ev):

   -22.8983  -7.8385  -4.9891  -4.5383  -2.9025  -2.2724   7.4674   9.5072
    10.2027  12.1633  16.5262  18.1245

          k = 0.0819 0.3309 0.4657 (  3914 PWs)   bands (ev):

   -22.7577  -7.7339  -5.1541  -4.3164  -3.4121  -2.0984   6.5181   8.4599
    10.1156  12.1313  16.9171  17.8925

          k = 0.0819 0.5200 0.0931 (  3919 PWs)   bands (ev):

   -22.9306  -8.3054  -5.2391  -3.9335  -3.2863  -2.0838   8.8378   9.9833
    10.4798  12.3856  16.8799  18.5242

          k = 0.0819 0.5200 0.2794 (  3926 PWs)   bands (ev):

   -22.8088  -7.6402  -5.2374  -4.5822  -3.0602  -2.8907   8.2936   8.6680
    10.0273  12.6882  16.9039  18.6870

          k = 0.0819 0.5200 0.4657 (  3917 PWs)   bands (ev):

   -22.6826  -6.5064  -5.6899  -4.6154  -4.4095  -2.6747   7.3031   7.9564
     9.7310  13.1489  16.8291  18.7523

          k = 0.0819-0.4255 0.0931 (  3917 PWs)   bands (ev):

   -22.9686  -8.2269  -5.0868  -3.9899  -3.2226  -2.1442   8.5671  10.2196
    10.7612  12.5100  16.4332  18.1007

          k = 0.0819-0.4255 0.2794 (  3915 PWs)   bands (ev):

   -22.8419  -7.6945  -5.1932  -4.5891  -3.0263  -2.5826   7.5400   9.4003
    10.2055  12.7329  16.5894  18.0027

          k = 0.0819-0.4255 0.4657 (  3914 PWs)   bands (ev):

   -22.7103  -7.0862  -5.5125  -4.3909  -3.9994  -2.4742   6.8607   8.2689
     9.9238  12.8091  16.8731  18.1939

          k = 0.0819-0.2364 0.0931 (  3935 PWs)   bands (ev):

   -23.1069  -7.8901  -4.5932  -4.1784  -3.3448  -1.8878   8.4777  10.3613
    11.3276  11.7872  16.1407  17.3507

          k = 0.0819-0.2364 0.2794 (  3920 PWs)   bands (ev):

   -22.9626  -7.9694  -4.8324  -4.4070  -2.9578  -1.6996   6.8970  10.1720
    10.5582  11.7488  16.2658  17.1051

          k = 0.0819-0.2364 0.4657 (  3930 PWs)   bands (ev):

   -22.8118  -8.2388  -4.8073  -4.2275  -3.0375  -1.4888   5.7925   9.0543
    10.5779  11.6584  16.4740  16.9451

          k = 0.0819-0.0473 0.0931 (  3953 PWs)   bands (ev):

   -23.2050  -7.5607  -4.3396  -4.3081  -3.7772  -1.1709   8.5638  10.3047
    10.6091  11.6206  16.6301  17.1291

          k = 0.0819-0.0473 0.2794 (  3924 PWs)   bands (ev):

   -23.0486  -8.1664  -4.3751  -4.2256  -3.2078  -0.9327   6.5676  10.6133
    10.7344  11.1012  15.9344  16.5822

          k = 0.0819-0.0473 0.4657 (  3900 PWs)   bands (ev):

   -22.8844  -8.7770  -4.2304  -4.1100  -2.7215  -0.6756   4.9742   9.8757
    11.0601  11.4097  15.4845  15.7995

          k = 0.2457 0.4255 0.0931 (  3913 PWs)   bands (ev):

   -22.9313  -7.9953  -6.1548  -3.8175  -2.4486  -2.3091   8.7902   9.4189
    10.2925  13.8183  15.6814  19.0028

          k = 0.2457 0.4255 0.2794 (  3920 PWs)   bands (ev):

   -22.8093  -7.4317  -5.6462  -4.7086  -2.9570  -2.6251   7.9047   8.9549
     9.9607  13.4612  15.9436  18.9183

          k = 0.2457 0.4255 0.4657 (  3907 PWs)   bands (ev):

   -22.6828  -6.6562  -5.3201  -4.8662  -3.9563  -3.2243   7.3868   7.9466
    10.2907  13.0680  16.1591  18.7865

          k = 0.2457 0.6146 0.0931 (  3906 PWs)   bands (ev):

   -22.9036  -7.8135  -6.6570  -3.7640  -2.3956  -2.1634   8.9009   9.2728
     9.9360  14.2396  15.6218  19.3609

          k = 0.2457 0.6146 0.2794 (  3912 PWs)   bands (ev):

   -22.7852  -7.1689  -6.1109  -4.5859  -2.9709  -2.7525   8.2082   8.7270
     9.7709  14.0224  15.5802  19.1990

          k = 0.2457 0.6146 0.4657 (  3912 PWs)   bands (ev):

   -22.6626  -6.0573  -5.4570  -5.0334  -4.2726  -3.5624   7.6140   7.8751
    10.3041  13.7417  15.5080  18.9928

          k = 0.2457-0.3309 0.0931 (  3914 PWs)   bands (ev):

   -22.9789  -8.1044  -5.4744  -3.9180  -2.7971  -2.2796   8.7032   9.7571
    10.6791  13.0357  15.8914  18.4813

          k = 0.2457-0.3309 0.2794 (  3928 PWs)   bands (ev):

   -22.8508  -7.6736  -5.1142  -4.8104  -2.9152  -2.4749   7.6572   9.2046
    10.1451  12.7262  16.3526  18.5138

          k = 0.2457-0.3309 0.4657 (  3919 PWs)   bands (ev):

   -22.7178  -7.2493  -5.2774  -4.5551  -3.6803  -2.6457   6.9763   8.1529
    10.2127  12.4680  16.7167  18.4035

          k = 0.2457-0.1418 0.0931 (  3925 PWs)   bands (ev):

   -23.0801  -7.9892  -4.4947  -4.1989  -3.3634  -2.0320   8.6500  10.3712
    11.0262  11.8338  16.1166  17.7648

          k = 0.2457-0.1418 0.2794 (  3928 PWs)   bands (ev):

   -22.9392  -7.9348  -4.9330  -4.3562  -2.9240  -1.9834   7.2550   9.8163
    10.2310  11.8825  16.3899  17.8190

          k = 0.2457-0.1418 0.4657 (  3925 PWs)   bands (ev):

   -22.7921  -8.0708  -4.9663  -4.2158  -3.1683  -1.7141   6.1166   8.7833
    10.1874  11.9193  16.7538  17.4110

          k = 0.4094 0.7091 0.0931 (  3910 PWs)   bands (ev):

   -22.9134  -8.1083  -6.0333  -3.8006  -2.7949  -2.0945   8.9242   9.4286
    10.2193  13.3557  16.2806  19.0329

          k = 0.4094 0.7091 0.2794 (  3917 PWs)   bands (ev):

   -22.7938  -7.4311  -5.6662  -4.6058  -3.0363  -2.7867   8.2201   8.6832
     9.9337  13.3346  16.2447  18.9812

          k = 0.4094 0.7091 0.4657 (  3925 PWs)   bands (ev):

   -22.6699  -6.1774  -5.6824  -4.7190  -4.5289  -3.0812   7.4512   7.9305
    10.0496  13.4279  16.1474  18.9096

          k = 0.4094-0.2364 0.0931 (  3928 PWs)   bands (ev):

   -22.9508  -8.3360  -4.6454  -4.2162  -3.4868  -2.1069   8.8037  10.4717
    10.5059  11.8734  17.0438  18.2042

          k = 0.4094-0.2364 0.2794 (  3928 PWs)   bands (ev):

   -22.8264  -7.7278  -5.1143  -4.4861  -3.0086  -2.9204   8.2473   8.7705
    10.0264  12.3952  17.1437  18.5207

          k = 0.4094-0.2364 0.4657 (  3911 PWs)   bands (ev):

   -22.6974  -6.8531  -5.6045  -4.3790  -4.3209  -2.4744   7.1935   7.9890
     9.6256  12.9250  17.1476  18.5803

          k =-0.0819-0.3309 0.0931 (  3923 PWs)   bands (ev):

   -23.0334  -8.0830  -4.8381  -4.0765  -3.1904  -2.1483   8.4788  10.3121
    11.0716  12.3522  16.0856  17.6850

          k =-0.0819-0.3309 0.2794 (  3919 PWs)   bands (ev):

   -22.8984  -7.8211  -5.0399  -4.5312  -2.9535  -2.1815   7.1773   9.7860
    10.3931  12.3241  16.4639  17.4767

          k =-0.0819-0.3309 0.4657 (  3914 PWs)   bands (ev):

   -22.7577  -7.7230  -5.1822  -4.3160  -3.4235  -2.0593   6.3685   8.5957
    10.2187  12.1829  16.8865  17.5659

          k =-0.0819-0.5200 0.0931 (  3919 PWs)   bands (ev):

   -22.9306  -8.3028  -5.2434  -3.9404  -3.2857  -2.0745   8.7216  10.0965
    10.5138  12.4434  16.8381  18.4377

          k =-0.0819-0.5200 0.2794 (  3926 PWs)   bands (ev):

   -22.8088  -7.6289  -5.2695  -4.5780  -3.1008  -2.8291   7.9452   9.0181
    10.0695  12.8168  16.7783  18.4672

          k =-0.0819-0.5200 0.4657 (  3917 PWs)   bands (ev):

   -22.6826  -6.4586  -5.7751  -4.5632  -4.4295  -2.6665   7.1691   8.0845
     9.7536  13.2247  16.7462  18.6355

          k =-0.0819 0.4255 0.0931 (  3917 PWs)   bands (ev):

   -22.9685  -8.2330  -5.0770  -3.9752  -3.2183  -2.1703   8.7962  10.0310
    10.6444  12.3646  16.5137  18.3540

          k =-0.0819 0.4255 0.2794 (  3915 PWs)   bands (ev):

   -22.8418  -7.7175  -5.1243  -4.6018  -2.9416  -2.7124   7.9785   8.9632
    10.0785  12.4696  16.8124  18.5659

          k =-0.0819 0.4255 0.4657 (  3914 PWs)   bands (ev):

   -22.7103  -7.1149  -5.4445  -4.4039  -4.0073  -2.5012   7.0906   8.0524
     9.8567  12.6855  16.9945  18.4923

          k =-0.0819 0.2364 0.0931 (  3935 PWs)   bands (ev):

   -23.1068  -7.8931  -4.5890  -4.1720  -3.3420  -1.9001   8.5728  10.2783
    11.2180  11.7985  16.0498  17.6026

          k =-0.0819 0.2364 0.2794 (  3920 PWs)   bands (ev):

   -22.9626  -7.9758  -4.8168  -4.4055  -2.9406  -1.7357   7.0183  10.0672
    10.3849  11.7598  16.1977  17.4933

          k =-0.0819 0.2364 0.4657 (  3930 PWs)   bands (ev):

   -22.8118  -8.2416  -4.8012  -4.2259  -3.0262  -1.5127   5.8505   9.0068
    10.4751  11.6868  16.4892  17.0897

          k =-0.0819 0.0473 0.0931 (  3953 PWs)   bands (ev):

   -23.2050  -7.5601  -4.3413  -4.3087  -3.7765  -1.1694   8.5414  10.3825
    10.5637  11.6203  16.8625  16.8693

          k =-0.0819 0.0473 0.2794 (  3924 PWs)   bands (ev):

   -23.0486  -8.1656  -4.3739  -4.2292  -3.2094  -0.9275   6.5479  10.6779
    10.8166  10.9943  16.0059  16.4619

          k =-0.0819 0.0473 0.4657 (  3900 PWs)   bands (ev):

   -22.8844  -8.7768  -4.2291  -4.1119  -2.7241  -0.6705   4.9655   9.8765
    11.2012  11.2891  15.4603  15.7962

          k =-0.2457-0.6146 0.0931 (  3906 PWs)   bands (ev):

   -22.9036  -7.8145  -6.6558  -3.7638  -2.3890  -2.1707   8.9878   9.1797
     9.9376  14.2152  15.6478  19.3682

          k =-0.2457-0.6146 0.2794 (  3912 PWs)   bands (ev):

   -22.7851  -7.1732  -6.1043  -4.5867  -2.9608  -2.7648   8.3196   8.6067
     9.7744  13.9694  15.6370  19.2281

          k =-0.2457-0.6146 0.4657 (  3912 PWs)   bands (ev):

   -22.6626  -6.0780  -5.3913  -5.0812  -4.2682  -3.5644   7.6958   7.7940
    10.3020  13.7122  15.5401  19.0077

          k =-0.2457 0.3309 0.0931 (  3914 PWs)   bands (ev):

   -22.9789  -8.1014  -5.4793  -3.9209  -2.8123  -2.2582   8.5895   9.8590
    10.7231  13.1217  15.8213  18.3833

          k =-0.2457 0.3309 0.2794 (  3928 PWs)   bands (ev):

   -22.8508  -7.6632  -5.1605  -4.7859  -2.9447  -2.4285   7.4957   9.3734
    10.1920  12.8573  16.2224  18.2860

          k =-0.2457 0.3309 0.4657 (  3919 PWs)   bands (ev):

   -22.7178  -7.2396  -5.3069  -4.5439  -3.6837  -2.6298   6.8820   8.2411
    10.2456  12.5176  16.6575  18.2826

          k =-0.2457 0.1418 0.0931 (  3925 PWs)   bands (ev):

   -23.0801  -7.9827  -4.4980  -4.2227  -3.3672  -2.0034   8.4439  10.5191
    11.2603  11.8655  16.2884  17.2263

          k =-0.2457 0.1418 0.2794 (  3928 PWs)   bands (ev):

   -22.9392  -7.9188  -4.9688  -4.3631  -2.9685  -1.8949   6.9645  10.0805
    10.5405  11.9414  16.7024  16.7651

          k =-0.2457 0.1418 0.4657 (  3925 PWs)   bands (ev):

   -22.7921  -8.0629  -4.9843  -4.2195  -3.1887  -1.6648   5.9760   8.9057
    10.3445  11.9270  16.8287  16.9647

          k =-0.4094 0.2364 0.0931 (  3928 PWs)   bands (ev):

   -22.9508  -8.3308  -4.6469  -4.2463  -3.4756  -2.0887   8.6090  10.5407
    10.7082  11.9832  17.0398  17.9236

          k =-0.4094 0.2364 0.2794 (  3928 PWs)   bands (ev):

   -22.8265  -7.7065  -5.1721  -4.4893  -3.1061  -2.7729   7.7134   9.2922
    10.1495  12.6292  16.9930  17.9562

          k =-0.4094 0.2364 0.4657 (  3911 PWs)   bands (ev):

   -22.6974  -6.8080  -5.6956  -4.3440  -4.3226  -2.4544   6.9559   8.2143
     9.6805  13.0546  17.0312  18.2943

!    total energy              =    -139.03549004 Ry
     Harris-Foulkes estimate   =    -139.03549071 Ry
     estimated scf accuracy    <       0.00000085 Ry

     The total energy is the sum of the following terms:

     one-electron contribution =      -1.23906987 Ry
     hartree contribution      =      20.51911592 Ry
     xc contribution           =     -27.34606550 Ry
     ewald contribution        =    -130.96947059 Ry

     convergence has been achieved in   9 iterations

     Forces acting on atoms (Ry/au):

     atom    1 type  3   force =     0.00000000    0.00000000    0.00370477
     atom    2 type  2   force =    -0.00000000   -0.00000000   -0.52869075
     atom    3 type  2   force =     0.00000000    0.00000000    0.48422769
     atom    4 type  1   force =     0.00000000    0.00000000    0.26461801
     atom    5 type  1   force =    -0.00000000   -0.00000000   -0.22385972

     Total force =     0.796329     Total SCF correction =     0.000939


     entering subroutine stress ...

          total   stress  (Ry/bohr**3)                   (kbar)     P= 2409.72
   0.01888752   0.00000000  -0.00000000       2778.45      0.00     -0.00
   0.00000000   0.01888752  -0.00000000          0.00   2778.45     -0.00
   0.00000000   0.00000000   0.01136778          0.00      0.00   1672.26


     number of scf cycles    =   3
     number of bfgs steps    =   2

     enthalpy old            =    -137.4738520068 Ry
     enthalpy new            =    -137.7180904678 Ry

     CASE: enthalpy_new < enthalpy_old

     new trust radius        =       0.2522364195 bohr
[...]
        k(   54) = (  -0.2207683  -0.5523295   0.5120068), wk =   0.0370370
        k(   55) = (  -0.2207683   0.2974082   0.1024014), wk =   0.0370370
        k(   56) = (  -0.2207683   0.2974082   0.3072041), wk =   0.0370370
        k(   57) = (  -0.2207683   0.2974082   0.5120068), wk =   0.0370370
        k(   58) = (  -0.2207683   0.1274607   0.1024014), wk =   0.0185185
        k(   59) = (  -0.2207683   0.1274607   0.3072041), wk =   0.0185185
        k(   60) = (  -0.2207683   0.1274607   0.5120068), wk =   0.0185185
        k(   61) = (  -0.3679472   0.2124344   0.1024014), wk =   0.0185185
        k(   62) = (  -0.3679472   0.2124344   0.3072041), wk =   0.0185185
        k(   63) = (  -0.3679472   0.2124344   0.5120068), wk =   0.0185185

     Dense  grid:    17589 G-vectors     FFT dimensions: (  40,  40,  27)

     Largest allocated arrays     est. size (Mb)     dimensions
        Kohn-Sham Wavefunctions         0.57 Mb     (   3092,   12)
        NL pseudopotentials             0.42 Mb     (   3092,    9)
        Each V/rho on FFT grid          0.66 Mb     (  43200)
        Each G-vector array             0.13 Mb     (  17589)
        G-vector shells                 0.01 Mb     (    849)
     Largest temporary arrays     est. size (Mb)     dimensions
        Auxiliary wavefunctions         2.26 Mb     (   3092,   48)
        Each subspace H/S matrix        0.04 Mb     (  48,  48)
        Each <psi_i|beta_j> matrix      0.00 Mb     (      9,   12)
        Arrays for rho mixing          10.55 Mb     (  43200,  16)

     Initial potential from superposition of free atoms

     starting charge   21.99998, renormalised to   24.00000
     Starting wfc are   14 randomized atomic wfcs

     Writing output data file CaOH2_ambient.save

     total cpu time spent up to now is     3443.5 secs

     per-process dynamical memory:    16.0 Mb

     Self-consistent Calculation

     iteration #  1     ecut=   100.00 Ry     beta=0.30
     Davidson diagonalization with overlap
     ethr =  1.00E-06,  avg # of iterations =  5.8

     total cpu time spent up to now is     3463.8 secs

     total energy              =    -139.75647657 Ry
     Harris-Foulkes estimate   =    -139.83797346 Ry
     estimated scf accuracy    <       0.46583281 Ry

     iteration #  2     ecut=   100.00 Ry     beta=0.30
     Davidson diagonalization with overlap
     ethr =  1.94E-03,  avg # of iterations =  1.0

     total cpu time spent up to now is     3470.1 secs

     total energy              =    -139.56496964 Ry
     Harris-Foulkes estimate   =    -139.76019757 Ry
     estimated scf accuracy    <       0.29966247 Ry

     iteration #  3     ecut=   100.00 Ry     beta=0.30
     Davidson diagonalization with overlap
     ethr =  1.25E-03,  avg # of iterations =  2.0

     total cpu time spent up to now is     3479.3 secs

     total energy              =    -139.61537372 Ry
     Harris-Foulkes estimate   =    -139.62044272 Ry
     estimated scf accuracy    <       0.01745467 Ry

     iteration #  4     ecut=   100.00 Ry     beta=0.30
     Davidson diagonalization with overlap
     ethr =  7.27E-05,  avg # of iterations =  2.0

     total cpu time spent up to now is     3486.9 secs

     total energy              =    -139.61525257 Ry
     Harris-Foulkes estimate   =    -139.61700094 Ry
     estimated scf accuracy    <       0.00361310 Ry

     iteration #  5     ecut=   100.00 Ry     beta=0.30
     Davidson diagonalization with overlap
     ethr =  1.51E-05,  avg # of iterations =  2.0

     total cpu time spent up to now is     3494.3 secs

     total energy              =    -139.61499040 Ry
     Harris-Foulkes estimate   =    -139.61561446 Ry
     estimated scf accuracy    <       0.00128511 Ry

     iteration #  6     ecut=   100.00 Ry     beta=0.30
     Davidson diagonalization with overlap
     ethr =  5.35E-06,  avg # of iterations =  2.0

     total cpu time spent up to now is     3502.5 secs

     total energy              =    -139.61526980 Ry
     Harris-Foulkes estimate   =    -139.61528785 Ry
     estimated scf accuracy    <       0.00004096 Ry

     iteration #  7     ecut=   100.00 Ry     beta=0.30
     Davidson diagonalization with overlap
     ethr =  1.71E-07,  avg # of iterations =  2.0

     total cpu time spent up to now is     3511.7 secs

     total energy              =    -139.61528046 Ry
     Harris-Foulkes estimate   =    -139.61528169 Ry
     estimated scf accuracy    <       0.00000904 Ry

     iteration #  8     ecut=   100.00 Ry     beta=0.30
     Davidson diagonalization with overlap
     ethr =  3.76E-08,  avg # of iterations =  2.0

     total cpu time spent up to now is     3520.5 secs

     total energy              =    -139.61528188 Ry
     Harris-Foulkes estimate   =    -139.61528200 Ry
     estimated scf accuracy    <       0.00000029 Ry

     iteration #  9     ecut=   100.00 Ry     beta=0.30
     Davidson diagonalization with overlap
     ethr =  1.22E-09,  avg # of iterations =  2.0

     total cpu time spent up to now is     3529.1 secs

     total energy              =    -139.61528198 Ry
     Harris-Foulkes estimate   =    -139.61528196 Ry
     estimated scf accuracy    <       0.00000003 Ry

     iteration # 10     ecut=   100.00 Ry     beta=0.30
     Davidson diagonalization with overlap
     ethr =  1.27E-10,  avg # of iterations =  2.0

     total cpu time spent up to now is     3535.8 secs

     End of self-consistent calculation

          k = 0.0736 0.1275 0.1024 (  3086 PWs)   bands (ev):

   -25.5681  -8.3563  -6.8554  -6.3010  -5.7414  -3.9902   8.4522   8.6185
     9.1052  10.5259  12.8467  13.3881

          k = 0.0736 0.1275 0.3072 (  3074 PWs)   bands (ev):

   -25.2972  -8.3708  -7.0460  -6.6356  -5.3177  -3.5695   5.7388   8.1950
     9.0761   9.7771  12.2678  13.2134

          k = 0.0736 0.1275 0.5120 (  3088 PWs)   bands (ev):

   -25.0050  -9.2212  -6.7053  -6.4111  -4.7586  -3.1743   3.6037   6.0252
    10.0250  10.8784  11.3895  12.4789

          k = 0.0736 0.2974 0.1024 (  3077 PWs)   bands (ev):

   -25.5173  -9.0392  -7.0860  -6.1479  -5.0729  -4.1565   8.5542   9.0506
    10.0595  10.3205  12.2667  13.4984

          k = 0.0736 0.2974 0.3072 (  3071 PWs)   bands (ev):

   -25.2534  -8.4736  -7.4434  -6.7785  -4.8963  -3.6639   5.8804   7.5995
     9.1074  10.6883  12.5602  13.4467

          k = 0.0736 0.2974 0.5120 (  3063 PWs)   bands (ev):

   -24.9693  -8.8783  -7.2999  -6.5137  -4.8706  -3.1332   3.8738   5.3636
     9.6693  11.0274  12.5756  12.9409

          k = 0.0736 0.4674 0.1024 (  3076 PWs)   bands (ev):

   -25.4797  -9.3724  -7.2683  -6.0357  -5.2484  -3.6892   8.6753   9.3978
     9.7850  10.4909  12.6183  13.4572

          k = 0.0736 0.4674 0.3072 (  3073 PWs)   bands (ev):

   -25.2210  -8.6671  -7.4146  -6.9049  -4.8885  -3.6472   6.3769   7.1105
     9.3160  10.8253  12.8620  13.3401

          k = 0.0736 0.4674 0.5120 (  3050 PWs)   bands (ev):

   -24.9429  -8.5770  -7.6562  -6.5987  -4.9261  -3.3661   4.3406   4.9540
     9.6016  11.5222  12.7724  12.9244

          k = 0.0736-0.3824 0.1024 (  3074 PWs)   bands (ev):

   -25.4935  -9.2754  -7.1890  -6.0112  -5.1341  -4.0026   8.9194   9.2724
    10.0383  10.3597  12.2667  13.2119

          k = 0.0736-0.3824 0.3072 (  3066 PWs)   bands (ev):

   -25.2328  -8.6702  -7.3019  -6.8802  -4.5441  -4.1123   6.4856   7.2197
     9.5633  10.8372  12.4035  12.8446

          k = 0.0736-0.3824 0.5120 (  3059 PWs)   bands (ev):

   -24.9526  -8.7265  -7.4921  -6.5677  -4.7509  -3.4910   4.4005   4.9619
     9.8911  11.2672  12.4940  12.7083

          k = 0.0736-0.2124 0.1024 (  3078 PWs)   bands (ev):

   -25.5446  -8.7417  -6.9537  -6.1404  -5.3181  -4.2462   8.6279   8.9347
     9.5507  10.4032  12.4782  13.2389

          k = 0.0736-0.2124 0.3072 (  3072 PWs)   bands (ev):

   -25.2769  -8.4519  -7.2182  -6.7070  -4.9013  -3.8603   5.9057   7.9155
     9.3577  10.1365  12.1714  13.1150

          k = 0.0736-0.2124 0.5120 (  3082 PWs)   bands (ev):

   -24.9885  -9.0800  -6.9929  -6.4586  -4.7036  -3.2579   3.7847   5.6739
    10.2157  10.6112  11.7455  12.7810

          k = 0.0736-0.0425 0.1024 (  3072 PWs)   bands (ev):

   -25.5815  -8.0228  -6.8075  -6.5446  -5.9470  -3.8184   8.3196   8.4429
     8.8537  10.6033  13.0943  13.4639

          k = 0.0736-0.0425 0.3072 (  3074 PWs)   bands (ev):

   -25.3088  -8.3465  -6.8235  -6.6012  -5.6334  -3.4234   5.6880   8.3928
     8.9478   9.4631  12.4417  13.1052

          k = 0.0736-0.0425 0.5120 (  3092 PWs)   bands (ev):

   -25.0145  -9.2995  -6.5049  -6.3869  -4.8022  -3.1686   3.5405   6.2526
    10.0425  10.8048  11.3751  12.1426

          k = 0.2208 0.3824 0.1024 (  3072 PWs)   bands (ev):

   -25.4798  -9.1167  -7.9160  -5.9991  -4.3970  -4.1351   8.1976   9.3928
     9.8127  11.2474  11.9663  13.8315

          k = 0.2208 0.3824 0.3072 (  3071 PWs)   bands (ev):

   -25.2210  -8.4780  -7.4856  -7.2594  -4.3557  -3.9312   6.4281   7.1262
     9.0972  11.2828  12.3902  13.3775

          k = 0.2208 0.3824 0.5120 (  3064 PWs)   bands (ev):

   -24.9430  -8.5967  -7.4664  -6.8871  -4.6036  -3.6238   4.4708   4.9235
    10.1048  11.1922  12.5041  12.7563

          k = 0.2208 0.5523 0.1024 (  3079 PWs)   bands (ev):

   -25.4697  -9.0304  -8.2341  -5.9811  -4.3511  -3.9541   8.0275   9.4495
     9.6976  11.4827  12.0105  14.0117

          k = 0.2208 0.5523 0.3072 (  3076 PWs)   bands (ev):

   -25.2124  -8.3857  -7.6967  -7.2902  -4.2364  -3.9509   6.6934   6.9083
     8.9468  11.5785  12.2153  13.4960

          k = 0.2208 0.5523 0.5120 (  3051 PWs)   bands (ev):

   -24.9359  -8.5082  -7.4616  -7.0485  -4.4464  -3.8472   4.7161   4.7609
    10.1325  11.5631  12.3099  12.5806

          k = 0.2208-0.2974 0.1024 (  3073 PWs)   bands (ev):

   -25.4973  -9.1318  -7.4853  -6.0480  -4.7100  -4.1789   8.3961   9.3066
     9.9336  10.7629  12.0808  13.6207

          k = 0.2208-0.2974 0.3072 (  3067 PWs)   bands (ev):

   -25.2361  -8.5111  -7.4344  -7.0252  -4.6335  -3.7947   6.1223   7.3704
     9.1874  10.9148  12.5979  13.3205

          k = 0.2208-0.2974 0.5120 (  3060 PWs)   bands (ev):

   -24.9552  -8.7328  -7.4179  -6.6795  -4.7712  -3.3430   4.1515   5.1343
     9.9024  11.0133  12.6133  12.9322

          k = 0.2208-0.1275 0.1024 (  3078 PWs)   bands (ev):

   -25.5346  -8.8718  -6.8953  -6.2433  -5.2663  -4.1532   8.6715   8.7063
    10.0040  10.2052  12.3805  13.5011

          k = 0.2208-0.1275 0.3072 (  3076 PWs)   bands (ev):

   -25.2683  -8.4162  -7.4033  -6.6739  -5.0340  -3.6083   5.7604   7.7892
     8.9989  10.5409  12.4013  13.5155

          k = 0.2208-0.1275 0.5120 (  3077 PWs)   bands (ev):

   -24.9815  -8.9997  -7.1384  -6.4443  -4.8728  -3.0621   3.7199   5.5666
     9.6186  11.0329  12.3718  12.8137

          k = 0.3679 0.6373 0.1024 (  3072 PWs)   bands (ev):

   -25.4734  -9.2440  -7.7878  -5.9905  -4.7898  -3.7735   8.3020   9.4270
     9.7564  11.0050  12.2995  13.7815

          k = 0.3679 0.6373 0.3072 (  3074 PWs)   bands (ev):

   -25.2155  -8.5645  -7.4464  -7.2054  -4.5486  -3.7919   6.6059   6.9556
     9.1474  11.1907  12.5026  13.4212

          k = 0.3679 0.6373 0.5120 (  3045 PWs)   bands (ev):

   -24.9385  -8.5349  -7.5852  -6.8209  -4.6912  -3.6101   4.5674   4.8356
     9.8947  11.5465  12.5384  12.7066

          k = 0.3679-0.2124 0.1024 (  3080 PWs)   bands (ev):

   -25.4871  -9.3685  -6.9821  -6.1269  -5.4124  -3.7178   8.8863   9.2266
     9.8033  10.3227  12.7744  13.2753

          k = 0.3679-0.2124 0.3072 (  3066 PWs)   bands (ev):

   -25.2273  -8.6596  -7.4432  -6.7481  -5.0383  -3.5719   6.1783   7.2418
     9.2983  10.7080  13.0397  13.3425

          k = 0.3679-0.2124 0.5120 (  3048 PWs)   bands (ev):

   -24.9481  -8.6313  -7.6365  -6.5025  -5.0156  -3.2242   4.1659   5.0557
     9.4761  11.4358  12.8877  13.0425

          k =-0.0736-0.2974 0.1024 (  3077 PWs)   bands (ev):

   -25.5173  -9.0597  -7.0748  -6.0587  -5.0327  -4.3106   8.8100   9.1744
    10.0304  10.2742  12.1832  13.1683

          k =-0.0736-0.2974 0.3072 (  3071 PWs)   bands (ev):

   -25.2534  -8.5714  -7.2838  -6.7973  -4.4845  -4.2157   6.1768   7.5816
     9.5612  10.5293  12.2449  12.8799

          k =-0.0736-0.2974 0.5120 (  3063 PWs)   bands (ev):

   -24.9693  -8.9026  -7.2719  -6.5157  -4.6928  -3.3941   4.0781   5.2962
    10.1466  10.7735  12.1484  12.8451

          k =-0.0736-0.4674 0.1024 (  3076 PWs)   bands (ev):

   -25.4797  -9.3795  -7.2623  -6.0020  -5.2499  -3.7364   8.8224   9.3583
     9.8876  10.4338  12.5233  13.3497

          k =-0.0736-0.4674 0.3072 (  3073 PWs)   bands (ev):

   -25.2210  -8.7052  -7.3418  -6.9202  -4.7770  -3.8215   6.6492   6.9659
     9.4472  10.8848  12.6259  13.1066

          k =-0.0736-0.4674 0.5120 (  3050 PWs)   bands (ev):

   -24.9429  -8.5986  -7.6308  -6.5993  -4.8518  -3.4771   4.5334   4.8188
     9.7017  11.6080  12.5833  12.7835

          k =-0.0736 0.3824 0.1024 (  3074 PWs)   bands (ev):

   -25.4935  -9.2573  -7.2023  -6.0914  -5.1496  -3.8749   8.6002   9.2753
     9.8422  10.5145  12.4591  13.4912

          k =-0.0736 0.3824 0.3072 (  3066 PWs)   bands (ev):

   -25.2329  -8.5755  -7.4694  -6.8522  -4.9012  -3.6089   6.0800   7.3303
     9.2017  10.7849  12.8657  13.4338

          k =-0.0736 0.3824 0.5120 (  3059 PWs)   bands (ev):

   -24.9526  -8.6888  -7.5366  -6.5663  -4.9296  -3.2257   4.1030   5.1215
     9.5929  11.2670  12.8220  13.0080

          k =-0.0736 0.2124 0.1024 (  3078 PWs)   bands (ev):

   -25.5446  -8.7284  -6.9577  -6.2044  -5.3048  -4.1890   8.5028   8.8130
     9.7559  10.3294  12.4197  13.4670

          k =-0.0736 0.2124 0.3072 (  3072 PWs)   bands (ev):

   -25.2769  -8.4042  -7.2948  -6.6999  -5.0170  -3.6764   5.7814   7.9092
     9.0538  10.3589  12.2645  13.3719

          k =-0.0736 0.2124 0.5120 (  3082 PWs)   bands (ev):

   -24.9885  -9.0718  -7.0010  -6.4570  -4.7939  -3.1290   3.7031   5.6875
     9.8199  10.8903  12.0299  12.7476

          k =-0.0736 0.0425 0.1024 (  3072 PWs)   bands (ev):

   -25.5815  -8.0288  -6.8090  -6.5179  -5.9630  -3.8243   8.4133   8.4172
     8.7909  10.6120  13.2379  13.2967

          k =-0.0736 0.0425 0.3072 (  3074 PWs)   bands (ev):

   -25.3088  -8.3532  -6.8084  -6.6044  -5.6259  -3.4436   5.7068   8.3828
     9.1549   9.2721  12.4494  13.0525

          k =-0.0736 0.0425 0.5120 (  3092 PWs)   bands (ev):

   -25.0145  -9.3004  -6.5038  -6.3886  -4.7854  -3.1905   3.5517   6.2525
    10.1807  10.6865  11.2864  12.1914

          k =-0.2208-0.5523 0.1024 (  3079 PWs)   bands (ev):

   -25.4698  -9.0277  -8.2372  -5.9828  -4.3673  -3.9331   8.0108   9.4799
     9.6635  11.4563  12.0485  14.0287

          k =-0.2208-0.5523 0.3072 (  3076 PWs)   bands (ev):

   -25.2124  -8.3700  -7.7256  -7.2796  -4.2967  -3.8813   6.6170   6.9643
     8.9356  11.5191  12.2948  13.5309

          k =-0.2208-0.5523 0.5120 (  3051 PWs)   bands (ev):

   -24.9359  -8.5044  -7.4683  -7.0465  -4.4732  -3.8147   4.6306   4.8379
    10.1067  11.5445  12.3973  12.5587

          k =-0.2208 0.2974 0.1024 (  3073 PWs)   bands (ev):

   -25.4973  -9.1415  -7.4746  -6.0257  -4.6242  -4.3040   8.5104   9.2871
    10.0271  10.7543  11.9688  13.5027

          k =-0.2208 0.2974 0.3072 (  3067 PWs)   bands (ev):

   -25.2361  -8.5606  -7.3177  -7.0738  -4.3802  -4.1111   6.2861   7.3349
     9.3292  10.9632  12.3848  13.0682

          k =-0.2208 0.2974 0.5120 (  3060 PWs)   bands (ev):

   -24.9552  -8.7479  -7.3988  -6.6806  -4.6844  -3.4681   4.2686   5.0771
    10.1166  10.9008  12.4831  12.8205

          k =-0.2208 0.1275 0.1024 (  3078 PWs)   bands (ev):

   -25.5346  -8.8972  -6.8982  -6.0952  -5.2862  -4.2895   8.9329   9.0178
     9.5361  10.3842  12.4748  13.0016

          k =-0.2208 0.1275 0.3072 (  3076 PWs)   bands (ev):

   -25.2683  -8.5230  -7.2418  -6.6801  -4.7181  -4.0786   6.0547   7.7967
     9.7083  10.0627  12.1397  12.9206

          k =-0.2208 0.1275 0.5120 (  3077 PWs)   bands (ev):

   -24.9815  -9.0208  -7.1163  -6.4477  -4.6732  -3.3507   3.9173   5.5226
    10.2757  10.6554  11.7555  12.8353

          k =-0.3679 0.2124 0.1024 (  3080 PWs)   bands (ev):

   -25.4871  -9.3831  -6.9835  -6.0070  -5.4539  -3.8145   9.2253   9.3681
     9.8320  10.1282  12.6375  12.9929

          k =-0.3679 0.2124 0.3072 (  3066 PWs)   bands (ev):

   -25.2273  -8.7368  -7.3202  -6.7511  -4.8072  -3.9397   6.6240   7.0702
     9.6490  10.7345  12.6569  12.7507

          k =-0.3679 0.2124 0.5120 (  3048 PWs)   bands (ev):

   -24.9481  -8.6716  -7.5903  -6.5041  -4.8627  -3.4559   4.4955   4.8533
     9.6879  11.5729  12.6308  12.6380

!    total energy              =    -139.61528197 Ry
     Harris-Foulkes estimate   =    -139.61528198 Ry
     estimated scf accuracy    <          9.1E-09 Ry

     The total energy is the sum of the following terms:

     one-electron contribution =      -6.45542158 Ry
     hartree contribution      =      20.89473565 Ry
     xc contribution           =     -26.81401883 Ry
     ewald contribution        =    -127.24057721 Ry

     convergence has been achieved in  10 iterations

     Forces acting on atoms (Ry/au):

     atom    1 type  3   force =    -0.00000000   -0.00000000   -0.00021395
     atom    2 type  2   force =     0.00000000    0.00000000    0.00001415
     atom    3 type  2   force =     0.00000000   -0.00000000    0.00023501
     atom    4 type  1   force =     0.00000000    0.00000000    0.00015555
     atom    5 type  1   force =    -0.00000000   -0.00000000   -0.00019076

     Total force =     0.000402     Total SCF correction =     0.000031


     entering subroutine stress ...

          total   stress  (Ry/bohr**3)                   (kbar)     P= 1241.70
   0.00859387   0.00000000   0.00000000       1264.20      0.00      0.00
  -0.00000000   0.00859387   0.00000000         -0.00   1264.20      0.00
   0.00000000   0.00000000   0.00813492          0.00      0.00   1196.69


     Writing output data file CaOH2_ambient.save

     init_run     :     41.89s CPU     42.32s WALL (       2 calls)
     electrons    :   1872.28s CPU   1908.36s WALL (      21 calls)
     update_pot   :    731.36s CPU    734.09s WALL (      19 calls)
     forces       :    263.93s CPU    264.65s WALL (      21 calls)
     stress       :    586.51s CPU    587.76s WALL (      21 calls)

     Called by init_run:
     wfcinit      :      9.04s CPU      9.10s WALL (       2 calls)
     potinit      :     13.69s CPU     14.00s WALL (       2 calls)

     Called by electrons:
     c_bands      :   1601.66s CPU   1630.50s WALL (     185 calls)
     sum_band     :    239.32s CPU    245.27s WALL (     185 calls)
     v_of_rho     :     17.60s CPU     17.96s WALL (     204 calls)
     mix_rho      :     14.61s CPU     15.21s WALL (     185 calls)

     Called by c_bands:
     init_us_2    :     67.68s CPU     73.72s WALL (   26082 calls)
     cegterg      :   1563.68s CPU   1571.73s WALL (   11655 calls)

     Called by *egterg:
     h_psi        :   1144.65s CPU   1149.06s WALL (   38039 calls)
     g_psi        :     14.39s CPU     14.53s WALL (   26258 calls)
     cdiaghg      :     18.34s CPU     18.44s WALL (   36590 calls)

     Called by h_psi:
     add_vuspsi   :     38.77s CPU     38.90s WALL (   38039 calls)

     General routines
     calbec       :     43.16s CPU     43.24s WALL (   40685 calls)
     fft          :      4.39s CPU      4.42s WALL (    2414 calls)
     ffts         :      5.81s CPU      5.84s WALL (    3172 calls)
     fftw         :   1103.39s CPU   1107.52s WALL (  904782 calls)
     davcio       :      9.10s CPU     28.40s WALL (   37737 calls)


     PWSCF        : 58m19.53s CPU    59m 1.01s WALL


   This run was terminated on:   4:22:19  22Apr2014            

=------------------------------------------------------------------------------=
   JOB DONE.
=------------------------------------------------------------------------------=
