
     Program PWSCF v.5.0.2 (svn rev. 9392) starts on 24Apr2014 at  0:53:36 

     This program is part of the open-source Quantum ESPRESSO suite
     for quantum simulation of materials; please cite
         "P. Giannozzi et al., J. Phys.:Condens. Matter 21 395502 (2009);
          URL http://www.quantum-espresso.org", 
     in publications or presentations arising from this work. More details at
     http://www.quantum-espresso.org/quote.php

     Serial version

     Current dimensions of program PWSCF are:
     Max number of different atomic species (ntypx) = 10
     Max number of k-points (npk) =  40000
     Max angular momentum in pseudopotentials (lmaxx) =  3
     Waiting for input...
     Reading input from standard input

     G-vector sticks info
     --------------------
     sticks:   dense  smooth     PW     G-vecs:    dense   smooth      PW
     Sum         757     757    283                22473    22473    5157



     bravais-lattice index     =            4
     lattice parameter (alat)  =       5.8600  a.u.
     unit-cell volume          =     232.1281 (a.u.)^3
     number of atoms/cell      =            5
     number of atomic types    =            3
     number of electrons       =        24.00
     number of Kohn-Sham states=           12
     kinetic-energy cutoff     =     100.0000  Ry
     charge density cutoff     =     320.0000  Ry
     convergence threshold     =      1.0E-06
     mixing beta               =       0.3000
     number of iterations used =           16  local-TF  mixing
     Exchange-correlation      = PBE ( 1 4 3 4 0)
     EXX-fraction              =        0.00
     nstep                     =           50


     celldm(1)=   5.860000  celldm(2)=   0.000000  celldm(3)=   1.332000
     celldm(4)=   0.000000  celldm(5)=   0.000000  celldm(6)=   0.000000

     crystal axes: (cart. coord. in units of alat)
               a(1) = (   1.000000   0.000000   0.000000 )  
               a(2) = (  -0.500000   0.866025   0.000000 )  
               a(3) = (   0.000000   0.000000   1.332000 )  

     reciprocal axes: (cart. coord. in units 2 pi/alat)
               b(1) = (  1.000000  0.577350 -0.000000 )  
               b(2) = (  0.000000  1.154701  0.000000 )  
               b(3) = (  0.000000 -0.000000  0.750751 )  


     PseudoPot. # 1 for H  read from file:
     /home/ilia/espresso/pseudo/H.pbe-sp-mt.ncpp
     MD5 check sum: 7a641936b52ccecd26bd1ad87cca5aed
     Pseudo is Norm-conserving, Zval =  1.0
     Generated by old ld1 code (numerical format)
     Using radial grid of 1076 points,  0 beta functions with: 

     PseudoPot. # 2 for O  read from file:
     /home/ilia/espresso/pseudo/O.pbe-sp-mt.ncpp
     MD5 check sum: 8a3d23d410d2f3ebfd0a39faacc72cbb
     Pseudo is Norm-conserving, Zval =  6.0
     Generated by old ld1 code (numerical format)
     Using radial grid of 1130 points,  1 beta functions with: 
                l(1) =   1

     PseudoPot. # 3 for Ca read from file:
     /home/ilia/espresso/pseudo/Ca.pbe-sp-mt_ion2.ncpp
     MD5 check sum: 4bcd670d05521f7b178fdf0a334578ab
     Pseudo is Norm-conserving, Zval = 10.0
     Generated by old ld1 code (numerical format)
     Using radial grid of 1153 points,  1 beta functions with: 
                l(1) =   1

     atomic species   valence    mass     pseudopotential
        H              1.00     1.00700     H ( 1.00)
        O              6.00    16.00000     O ( 1.00)
        Ca            10.00    40.07800     Ca( 1.00)

      2 Sym. Ops. (no inversion) found



   Cartesian axes

     site n.     atom                  positions (alat units)
         1           Ca  tau(   1) = (   0.0000000   0.0000000   0.0000000  )
         2           O   tau(   2) = (   0.0000000   0.5773503   0.6287040  )
         3           O   tau(   3) = (   0.5000000   0.2886751   0.7166160  )
         4           H   tau(   4) = (   0.2500000   0.4330127   0.9430560  )
         5           H   tau(   5) = (   0.2500000   0.4330127   0.3889440  )

     number of k points=   171

     Number of k-points >= 100: set verbosity='high' to print them.

     Dense  grid:    22473 G-vectors     FFT dimensions: (  36,  36,  45)

     Largest allocated arrays     est. size (Mb)     dimensions
        Kohn-Sham Wavefunctions         0.72 Mb     (   3953,   12)
        NL pseudopotentials             0.54 Mb     (   3953,    9)
        Each V/rho on FFT grid          0.89 Mb     (  58320)
        Each G-vector array             0.17 Mb     (  22473)
        G-vector shells                 0.17 Mb     (  22473)
     Largest temporary arrays     est. size (Mb)     dimensions
        Auxiliary wavefunctions         2.90 Mb     (   3953,   48)
        Each subspace H/S matrix        0.04 Mb     (  48,  48)
        Each <psi_i|beta_j> matrix      0.00 Mb     (      9,   12)
        Arrays for rho mixing          14.24 Mb     (  58320,  16)

     Initial potential from superposition of free atoms

     starting charge   21.99998, renormalised to   24.00000
     Starting wfc are   14 randomized atomic wfcs

     total cpu time spent up to now is       44.9 secs

     per-process dynamical memory:    14.1 Mb

     Self-consistent Calculation

     iteration #  1     ecut=   100.00 Ry     beta=0.30
     Davidson diagonalization with overlap
     ethr =  1.00E-02,  avg # of iterations =  4.1

     total cpu time spent up to now is       80.2 secs

     total energy              =    -139.04604779 Ry
     Harris-Foulkes estimate   =    -139.19520853 Ry
     estimated scf accuracy    <       0.76764974 Ry

     iteration #  2     ecut=   100.00 Ry     beta=0.30
     Davidson diagonalization with overlap
     ethr =  3.20E-03,  avg # of iterations =  1.5

     total cpu time spent up to now is      101.6 secs

     total energy              =    -138.81238727 Ry
     Harris-Foulkes estimate   =    -139.08442427 Ry
     estimated scf accuracy    <       0.45626081 Ry

     iteration #  3     ecut=   100.00 Ry     beta=0.30
     Davidson diagonalization with overlap
     ethr =  1.90E-03,  avg # of iterations =  3.4

     total cpu time spent up to now is      135.4 secs

     total energy              =    -138.97739731 Ry
     Harris-Foulkes estimate   =    -139.01456566 Ry
     estimated scf accuracy    <       0.28262335 Ry

     iteration #  4     ecut=   100.00 Ry     beta=0.30
     Davidson diagonalization with overlap
     ethr =  1.18E-03,  avg # of iterations =  1.0

     total cpu time spent up to now is      156.2 secs

     total energy              =    -138.91867837 Ry
     Harris-Foulkes estimate   =    -138.98181762 Ry
     estimated scf accuracy    <       0.17316922 Ry

     iteration #  5     ecut=   100.00 Ry     beta=0.30
     Davidson diagonalization with overlap
     ethr =  7.22E-04,  avg # of iterations =  2.8

     total cpu time spent up to now is      182.6 secs

     total energy              =    -138.94915033 Ry
     Harris-Foulkes estimate   =    -138.95012465 Ry
     estimated scf accuracy    <       0.00696325 Ry

     iteration #  6     ecut=   100.00 Ry     beta=0.30
     Davidson diagonalization with overlap
     ethr =  2.90E-05,  avg # of iterations =  2.8

     total cpu time spent up to now is      206.2 secs

     total energy              =    -138.95064046 Ry
     Harris-Foulkes estimate   =    -138.95148751 Ry
     estimated scf accuracy    <       0.00313543 Ry

     iteration #  7     ecut=   100.00 Ry     beta=0.30
     Davidson diagonalization with overlap
     ethr =  1.31E-05,  avg # of iterations =  3.7

     total cpu time spent up to now is      232.6 secs

     total energy              =    -138.95194852 Ry
     Harris-Foulkes estimate   =    -138.95186006 Ry
     estimated scf accuracy    <       0.00288823 Ry

     iteration #  8     ecut=   100.00 Ry     beta=0.30
     Davidson diagonalization with overlap
     ethr =  1.20E-05,  avg # of iterations =  1.0

     total cpu time spent up to now is      253.4 secs

     total energy              =    -138.95101230 Ry
     Harris-Foulkes estimate   =    -138.95197478 Ry
     estimated scf accuracy    <       0.00334134 Ry

     iteration #  9     ecut=   100.00 Ry     beta=0.30
     Davidson diagonalization with overlap
     ethr =  1.20E-05,  avg # of iterations =  3.0

     total cpu time spent up to now is      277.5 secs

     total energy              =    -138.95149264 Ry
     Harris-Foulkes estimate   =    -138.95151907 Ry
     estimated scf accuracy    <       0.00023478 Ry

     iteration # 10     ecut=   100.00 Ry     beta=0.30
     Davidson diagonalization with overlap
     ethr =  9.78E-07,  avg # of iterations =  2.8

     total cpu time spent up to now is      301.6 secs

     total energy              =    -138.95151954 Ry
     Harris-Foulkes estimate   =    -138.95152716 Ry
     estimated scf accuracy    <       0.00018343 Ry

     iteration # 11     ecut=   100.00 Ry     beta=0.30
     Davidson diagonalization with overlap
     ethr =  7.64E-07,  avg # of iterations =  1.0

     total cpu time spent up to now is      323.6 secs

     total energy              =    -138.95147085 Ry
     Harris-Foulkes estimate   =    -138.95152067 Ry
     estimated scf accuracy    <       0.00016055 Ry

     iteration # 12     ecut=   100.00 Ry     beta=0.30
     Davidson diagonalization with overlap
     ethr =  6.69E-07,  avg # of iterations =  3.8

     total cpu time spent up to now is      351.2 secs

     total energy              =    -138.95158602 Ry
     Harris-Foulkes estimate   =    -138.95158884 Ry
     estimated scf accuracy    <       0.00008812 Ry

     iteration # 13     ecut=   100.00 Ry     beta=0.30
     Davidson diagonalization with overlap
     ethr =  3.67E-07,  avg # of iterations =  1.0

     total cpu time spent up to now is      372.1 secs

     total energy              =    -138.95157252 Ry
     Harris-Foulkes estimate   =    -138.95158659 Ry
     estimated scf accuracy    <       0.00008138 Ry

     iteration # 14     ecut=   100.00 Ry     beta=0.30
     Davidson diagonalization with overlap
     ethr =  3.39E-07,  avg # of iterations =  2.2

     total cpu time spent up to now is      394.4 secs

     total energy              =    -138.95157721 Ry
     Harris-Foulkes estimate   =    -138.95157782 Ry
     estimated scf accuracy    <       0.00000643 Ry

     iteration # 15     ecut=   100.00 Ry     beta=0.30
     Davidson diagonalization with overlap
     ethr =  2.68E-08,  avg # of iterations =  3.5

     total cpu time spent up to now is      418.7 secs

     total energy              =    -138.95168819 Ry
     Harris-Foulkes estimate   =    -138.95168799 Ry
     estimated scf accuracy    <       0.00001236 Ry

     iteration # 16     ecut=   100.00 Ry     beta=0.30
     Davidson diagonalization with overlap
     ethr =  2.68E-08,  avg # of iterations =  1.0

     total cpu time spent up to now is      439.8 secs

     total energy              =    -138.95168662 Ry
     Harris-Foulkes estimate   =    -138.95168822 Ry
     estimated scf accuracy    <       0.00001251 Ry

     iteration # 17     ecut=   100.00 Ry     beta=0.30
     Davidson diagonalization with overlap
     ethr =  2.68E-08,  avg # of iterations =  3.3

     total cpu time spent up to now is      465.5 secs

     total energy              =    -138.95168789 Ry
     Harris-Foulkes estimate   =    -138.95168824 Ry
     estimated scf accuracy    <       0.00000704 Ry

     iteration # 18     ecut=   100.00 Ry     beta=0.30
     Davidson diagonalization with overlap
     ethr =  2.68E-08,  avg # of iterations =  1.0

     total cpu time spent up to now is      486.5 secs

     total energy              =    -138.95168753 Ry
     Harris-Foulkes estimate   =    -138.95168795 Ry
     estimated scf accuracy    <       0.00000604 Ry

     iteration # 19     ecut=   100.00 Ry     beta=0.30
     Davidson diagonalization with overlap
     ethr =  2.52E-08,  avg # of iterations =  2.4

     total cpu time spent up to now is      508.9 secs

     total energy              =    -138.95168795 Ry
     Harris-Foulkes estimate   =    -138.95168817 Ry
     estimated scf accuracy    <       0.00000803 Ry

     iteration # 20     ecut=   100.00 Ry     beta=0.30
     Davidson diagonalization with overlap
     ethr =  2.52E-08,  avg # of iterations =  1.0

     total cpu time spent up to now is      529.9 secs

     total energy              =    -138.95168788 Ry
     Harris-Foulkes estimate   =    -138.95168798 Ry
     estimated scf accuracy    <       0.00000744 Ry

     iteration # 21     ecut=   100.00 Ry     beta=0.30
     Davidson diagonalization with overlap
     ethr =  2.52E-08,  avg # of iterations =  1.0

     total cpu time spent up to now is      550.9 secs

     total energy              =    -138.95168778 Ry
     Harris-Foulkes estimate   =    -138.95168789 Ry
     estimated scf accuracy    <       0.00000709 Ry

     iteration # 22     ecut=   100.00 Ry     beta=0.30
     Davidson diagonalization with overlap
     ethr =  2.52E-08,  avg # of iterations =  1.0

     total cpu time spent up to now is      571.9 secs

     total energy              =    -138.95168770 Ry
     Harris-Foulkes estimate   =    -138.95168779 Ry
     estimated scf accuracy    <       0.00000673 Ry

     iteration # 23     ecut=   100.00 Ry     beta=0.30
     Davidson diagonalization with overlap
     ethr =  2.52E-08,  avg # of iterations =  1.0

     total cpu time spent up to now is      592.8 secs

     total energy              =    -138.95168783 Ry
     Harris-Foulkes estimate   =    -138.95168770 Ry
     estimated scf accuracy    <       0.00000644 Ry

     iteration # 24     ecut=   100.00 Ry     beta=0.30
     Davidson diagonalization with overlap
     ethr =  2.52E-08,  avg # of iterations =  1.0

     total cpu time spent up to now is      614.2 secs

     total energy              =    -138.95168768 Ry
     Harris-Foulkes estimate   =    -138.95168784 Ry
     estimated scf accuracy    <       0.00000676 Ry

     iteration # 25     ecut=   100.00 Ry     beta=0.30
     Davidson diagonalization with overlap
     ethr =  2.52E-08,  avg # of iterations =  1.0

     total cpu time spent up to now is      635.2 secs

     total energy              =    -138.95168740 Ry
     Harris-Foulkes estimate   =    -138.95168768 Ry
     estimated scf accuracy    <       0.00000628 Ry

     iteration # 26     ecut=   100.00 Ry     beta=0.30
     Davidson diagonalization with overlap
     ethr =  2.52E-08,  avg # of iterations =  1.0

     total cpu time spent up to now is      656.1 secs

     total energy              =    -138.95168720 Ry
     Harris-Foulkes estimate   =    -138.95168741 Ry
     estimated scf accuracy    <       0.00000546 Ry

     iteration # 27     ecut=   100.00 Ry     beta=0.30
     Davidson diagonalization with overlap
     ethr =  2.28E-08,  avg # of iterations =  1.0

     total cpu time spent up to now is      677.3 secs

     total energy              =    -138.95168728 Ry
     Harris-Foulkes estimate   =    -138.95168721 Ry
     estimated scf accuracy    <       0.00000481 Ry

     iteration # 28     ecut=   100.00 Ry     beta=0.30
     Davidson diagonalization with overlap
     ethr =  2.00E-08,  avg # of iterations =  1.0

     total cpu time spent up to now is      698.5 secs

     total energy              =    -138.95168718 Ry
     Harris-Foulkes estimate   =    -138.95168729 Ry
     estimated scf accuracy    <       0.00000494 Ry

     iteration # 29     ecut=   100.00 Ry     beta=0.30
     Davidson diagonalization with overlap
     ethr =  2.00E-08,  avg # of iterations =  1.0

     total cpu time spent up to now is      719.6 secs

     total energy              =    -138.95168772 Ry
     Harris-Foulkes estimate   =    -138.95168719 Ry
     estimated scf accuracy    <       0.00000460 Ry

     iteration # 30     ecut=   100.00 Ry     beta=0.30
     Davidson diagonalization with overlap
     ethr =  1.91E-08,  avg # of iterations =  1.0

     total cpu time spent up to now is      740.4 secs

     total energy              =    -138.95168764 Ry
     Harris-Foulkes estimate   =    -138.95168773 Ry
     estimated scf accuracy    <       0.00000601 Ry

     iteration # 31     ecut=   100.00 Ry     beta=0.30
     Davidson diagonalization with overlap
     ethr =  1.91E-08,  avg # of iterations =  1.0

     total cpu time spent up to now is      761.3 secs

     total energy              =    -138.95168539 Ry
     Harris-Foulkes estimate   =    -138.95168765 Ry
     estimated scf accuracy    <       0.00000571 Ry

     iteration # 32     ecut=   100.00 Ry     beta=0.30
     Davidson diagonalization with overlap
     ethr =  1.91E-08,  avg # of iterations =  3.7

     total cpu time spent up to now is      786.8 secs

     End of self-consistent calculation

     Number of k-points >= 100: set verbosity='high' to print the bands.

!    total energy              =    -138.95168598 Ry
     Harris-Foulkes estimate   =    -138.95168650 Ry
     estimated scf accuracy    <       0.00000076 Ry

     The total energy is the sum of the following terms:

     one-electron contribution =     -26.04064477 Ry
     hartree contribution      =      27.58809022 Ry
     xc contribution           =     -26.13870518 Ry
     ewald contribution        =    -114.36042625 Ry

     convergence has been achieved in  32 iterations

     Forces acting on atoms (Ry/au):

     atom    1 type  3   force =    -0.00029570    0.00017073   -0.00114771
     atom    2 type  2   force =    -0.14432346    0.08332519   -0.18309947
     atom    3 type  2   force =     0.14370716   -0.08296937    0.19658348
     atom    4 type  1   force =     0.01556951   -0.00898906   -0.02906916
     atom    5 type  1   force =    -0.01465750    0.00846251    0.01673285

     Total force =     0.359464     Total SCF correction =     0.000606


     entering subroutine stress ...

          total   stress  (Ry/bohr**3)                   (kbar)     P= 1016.27
   0.00960679   0.00037459   0.00055401       1413.21     55.10     81.50
   0.00037459   0.01003932  -0.00031986         55.10   1476.84    -47.05
   0.00055401  -0.00031986   0.00107922         81.50    -47.05    158.76


     BFGS Geometry Optimization

     number of scf cycles    =   1
     number of bfgs steps    =   0

     enthalpy new            =    -137.5315085055 Ry

     new trust radius        =       0.3869352675 bohr
     new conv_thr            =       0.0000010000 Ry

     new unit-cell volume =    242.12246 a.u.^3 (    35.87885 Ang^3 )

CELL_PARAMETERS (alat=  5.86000000)
   1.087217747   0.009364688   0.013850335
  -0.535498815   0.946240532  -0.013850335
   0.018448646  -0.010651331   1.164205934

ATOMIC_POSITIONS (crystal)
Ca      -0.000033641   0.000033641  -0.000147038
O        0.316914282   0.683085718   0.448542310
O        0.683015604   0.316984396   0.563185187
H        0.501771275   0.498228725   0.704275820
H        0.498332480   0.501667520   0.294143720



     Writing output data file CaOH2_ambient.save
     NEW-OLD atomic charge density approx. for the potential
     NEW k-points: (use verbosity='high' to print them)
     extrapolated charge   24.90812, renormalised to   24.00000

     total cpu time spent up to now is      877.8 secs

     per-process dynamical memory:    17.6 Mb

     Self-consistent Calculation

     iteration #  1     ecut=   100.00 Ry     beta=0.30
     Davidson diagonalization with overlap
     ethr =  1.00E-06,  avg # of iterations = 11.5

     total cpu time spent up to now is      969.0 secs

     total energy              =    -139.41746717 Ry
     Harris-Foulkes estimate   =    -138.67793261 Ry
     estimated scf accuracy    <       0.09918530 Ry

     iteration #  2     ecut=   100.00 Ry     beta=0.30
     Davidson diagonalization with overlap
     ethr =  4.13E-04,  avg # of iterations =  3.1

     total cpu time spent up to now is     1002.9 secs

     total energy              =    -139.47064979 Ry
     Harris-Foulkes estimate   =    -139.46854627 Ry
     estimated scf accuracy    <       0.22183368 Ry

     iteration #  3     ecut=   100.00 Ry     beta=0.30
     Davidson diagonalization with overlap
     ethr =  4.13E-04,  avg # of iterations =  1.0

     total cpu time spent up to now is     1024.2 secs

     total energy              =    -139.35032143 Ry
     Harris-Foulkes estimate   =    -139.47079953 Ry
     estimated scf accuracy    <       0.22809413 Ry

     iteration #  4     ecut=   100.00 Ry     beta=0.30
     Davidson diagonalization with overlap
     ethr =  4.13E-04,  avg # of iterations =  3.3

     total cpu time spent up to now is     1056.8 secs

     total energy              =    -139.41659919 Ry
     Harris-Foulkes estimate   =    -139.42597297 Ry
     estimated scf accuracy    <       0.07180425 Ry

     iteration #  5     ecut=   100.00 Ry     beta=0.30
     Davidson diagonalization with overlap
     ethr =  2.99E-04,  avg # of iterations =  1.0

     total cpu time spent up to now is     1077.7 secs

     total energy              =    -139.39577639 Ry
     Harris-Foulkes estimate   =    -139.41743315 Ry
     estimated scf accuracy    <       0.04250851 Ry

     iteration #  6     ecut=   100.00 Ry     beta=0.30
     Davidson diagonalization with overlap
     ethr =  1.77E-04,  avg # of iterations =  3.2

     total cpu time spent up to now is     1106.7 secs

     total energy              =    -139.41175116 Ry
     Harris-Foulkes estimate   =    -139.41299153 Ry
     estimated scf accuracy    <       0.01534727 Ry

     iteration #  7     ecut=   100.00 Ry     beta=0.30
     Davidson diagonalization with overlap
     ethr =  6.39E-05,  avg # of iterations =  1.0

     total cpu time spent up to now is     1128.0 secs

     total energy              =    -139.41149813 Ry
     Harris-Foulkes estimate   =    -139.41194222 Ry
     estimated scf accuracy    <       0.01244355 Ry

     iteration #  8     ecut=   100.00 Ry     beta=0.30
     Davidson diagonalization with overlap
     ethr =  5.18E-05,  avg # of iterations =  1.0

     total cpu time spent up to now is     1149.0 secs

     total energy              =    -139.40836018 Ry
     Harris-Foulkes estimate   =    -139.41153675 Ry
     estimated scf accuracy    <       0.01061161 Ry

     iteration #  9     ecut=   100.00 Ry     beta=0.30
     Davidson diagonalization with overlap
     ethr =  4.42E-05,  avg # of iterations =  2.6

     total cpu time spent up to now is     1174.1 secs

     total energy              =    -139.40959904 Ry
     Harris-Foulkes estimate   =    -139.40973998 Ry
     estimated scf accuracy    <       0.00029485 Ry

     iteration # 10     ecut=   100.00 Ry     beta=0.30
     Davidson diagonalization with overlap
     ethr =  1.23E-06,  avg # of iterations =  3.9

     total cpu time spent up to now is     1210.3 secs

     total energy              =    -139.40961855 Ry
     Harris-Foulkes estimate   =    -139.41001081 Ry
     estimated scf accuracy    <       0.00144823 Ry

     iteration # 11     ecut=   100.00 Ry     beta=0.30
     Davidson diagonalization with overlap
     ethr =  1.23E-06,  avg # of iterations =  3.3

     total cpu time spent up to now is     1240.4 secs

     total energy              =    -139.40970346 Ry
     Harris-Foulkes estimate   =    -139.40973952 Ry
     estimated scf accuracy    <       0.00008323 Ry

     iteration # 12     ecut=   100.00 Ry     beta=0.30
     Davidson diagonalization with overlap
     ethr =  3.47E-07,  avg # of iterations =  3.4

     total cpu time spent up to now is     1270.3 secs

     total energy              =    -139.40972772 Ry
     Harris-Foulkes estimate   =    -139.40973322 Ry
     estimated scf accuracy    <       0.00003315 Ry

     iteration # 13     ecut=   100.00 Ry     beta=0.30
     Davidson diagonalization with overlap
     ethr =  1.38E-07,  avg # of iterations =  1.0

     total cpu time spent up to now is     1291.3 secs

     total energy              =    -139.40972131 Ry
     Harris-Foulkes estimate   =    -139.40972820 Ry
     estimated scf accuracy    <       0.00001877 Ry

     iteration # 14     ecut=   100.00 Ry     beta=0.30
     Davidson diagonalization with overlap
     ethr =  7.82E-08,  avg # of iterations =  3.0

     total cpu time spent up to now is     1318.1 secs

     total energy              =    -139.40972598 Ry
     Harris-Foulkes estimate   =    -139.40972600 Ry
     estimated scf accuracy    <       0.00000100 Ry

     iteration # 15     ecut=   100.00 Ry     beta=0.30
     Davidson diagonalization with overlap
     ethr =  4.17E-09,  avg # of iterations =  1.4

     total cpu time spent up to now is     1339.4 secs

     End of self-consistent calculation

     Number of k-points >= 100: set verbosity='high' to print the bands.

!    total energy              =    -139.40972524 Ry
     Harris-Foulkes estimate   =    -139.40972601 Ry
     estimated scf accuracy    <       0.00000094 Ry

     The total energy is the sum of the following terms:

     one-electron contribution =     -26.34291861 Ry
     hartree contribution      =      27.22664859 Ry
     xc contribution           =     -26.09814999 Ry
     ewald contribution        =    -114.19530524 Ry

     convergence has been achieved in  15 iterations

     Forces acting on atoms (Ry/au):

     atom    1 type  3   force =    -0.00030326    0.00017509    0.00111399
     atom    2 type  2   force =     0.09369581   -0.05409530   -0.23565688
     atom    3 type  2   force =    -0.09011822    0.05202978    0.23207220
     atom    4 type  1   force =     0.05210024   -0.03008009   -0.07276123
     atom    5 type  1   force =    -0.05537457    0.03197052    0.07523192

     Total force =     0.388057     Total SCF correction =     0.000903


     entering subroutine stress ...

          total   stress  (Ry/bohr**3)                   (kbar)     P=  576.32
   0.00473180   0.00214782   0.00032284        696.07    315.96     47.49
   0.00214782   0.00721189  -0.00018639        315.96   1060.91    -27.42
   0.00032284  -0.00018639  -0.00019054         47.49    -27.42    -28.03


     number of scf cycles    =   2
     number of bfgs steps    =   1

     enthalpy old            =    -137.5315085055 Ry
     enthalpy new            =    -137.9284014493 Ry

     CASE: enthalpy_new < enthalpy_old

     new trust radius        =       0.4978265558 bohr
     new conv_thr            =       0.0000010000 Ry

     new unit-cell volume =    225.52419 a.u.^3 (    33.41924 Ang^3 )

CELL_PARAMETERS (alat=  5.86000000)
   1.132824283   0.031199411   0.025886061
  -0.539392659   0.996654313  -0.025886061
   0.034662173  -0.020012215   0.979137896

ATOMIC_POSITIONS (crystal)
Ca      -0.000066202   0.000066202  -0.000203295
O        0.309804305   0.690195695   0.425417199
O        0.690214389   0.309785611   0.587298934
H        0.504848226   0.495151774   0.699412729
H        0.495199282   0.504800718   0.298074433



     Writing output data file CaOH2_ambient.save
     NEW-OLD atomic charge density approx. for the potential
     NEW k-points: (use verbosity='high' to print them)
     extrapolated charge   22.38083, renormalised to   24.00000

     total cpu time spent up to now is     1430.9 secs

     per-process dynamical memory:    17.6 Mb

     Self-consistent Calculation

     iteration #  1     ecut=   100.00 Ry     beta=0.30
     Davidson diagonalization with overlap
     ethr =  1.00E-06,  avg # of iterations =  8.5

     total cpu time spent up to now is     1508.4 secs

     total energy              =    -139.36529249 Ry
     Harris-Foulkes estimate   =    -140.70101615 Ry
     estimated scf accuracy    <       0.46297907 Ry

     iteration #  2     ecut=   100.00 Ry     beta=0.30
     Davidson diagonalization with overlap
     ethr =  1.93E-03,  avg # of iterations =  3.0

     total cpu time spent up to now is     1541.6 secs

     total energy              =    -139.57407105 Ry
     Harris-Foulkes estimate   =    -139.57739892 Ry
     estimated scf accuracy    <       0.02082877 Ry

     iteration #  3     ecut=   100.00 Ry     beta=0.30
     Davidson diagonalization with overlap
     ethr =  8.68E-05,  avg # of iterations =  2.0

     total cpu time spent up to now is     1564.6 secs

     total energy              =    -139.56960309 Ry
     Harris-Foulkes estimate   =    -139.57522235 Ry
     estimated scf accuracy    <       0.01135477 Ry

     iteration #  4     ecut=   100.00 Ry     beta=0.30
     Davidson diagonalization with overlap
     ethr =  4.73E-05,  avg # of iterations =  2.3

     total cpu time spent up to now is     1592.7 secs

     total energy              =    -139.57222536 Ry
     Harris-Foulkes estimate   =    -139.57261397 Ry
     estimated scf accuracy    <       0.00244468 Ry

     iteration #  5     ecut=   100.00 Ry     beta=0.30
     Davidson diagonalization with overlap
     ethr =  1.02E-05,  avg # of iterations =  1.0

     total cpu time spent up to now is     1614.2 secs

     total energy              =    -139.57148232 Ry
     Harris-Foulkes estimate   =    -139.57227305 Ry
     estimated scf accuracy    <       0.00144938 Ry

     iteration #  6     ecut=   100.00 Ry     beta=0.30
     Davidson diagonalization with overlap
     ethr =  6.04E-06,  avg # of iterations =  2.9

     total cpu time spent up to now is     1643.1 secs

     total energy              =    -139.57197118 Ry
     Harris-Foulkes estimate   =    -139.57200161 Ry
     estimated scf accuracy    <       0.00024775 Ry

     iteration #  7     ecut=   100.00 Ry     beta=0.30
     Davidson diagonalization with overlap
     ethr =  1.03E-06,  avg # of iterations =  1.0

     total cpu time spent up to now is     1664.3 secs

     total energy              =    -139.57189497 Ry
     Harris-Foulkes estimate   =    -139.57197562 Ry
     estimated scf accuracy    <       0.00016102 Ry

     iteration #  8     ecut=   100.00 Ry     beta=0.30
     Davidson diagonalization with overlap
     ethr =  6.71E-07,  avg # of iterations =  2.8

     total cpu time spent up to now is     1693.0 secs

     total energy              =    -139.57193842 Ry
     Harris-Foulkes estimate   =    -139.57194145 Ry
     estimated scf accuracy    <       0.00001063 Ry

     iteration #  9     ecut=   100.00 Ry     beta=0.30
     Davidson diagonalization with overlap
     ethr =  4.43E-08,  avg # of iterations =  2.0

     total cpu time spent up to now is     1717.7 secs

     total energy              =    -139.57193816 Ry
     Harris-Foulkes estimate   =    -139.57193925 Ry
     estimated scf accuracy    <       0.00000226 Ry

     iteration # 10     ecut=   100.00 Ry     beta=0.30
     Davidson diagonalization with overlap
     ethr =  9.41E-09,  avg # of iterations =  2.9

     total cpu time spent up to now is     1746.5 secs

     End of self-consistent calculation

     Number of k-points >= 100: set verbosity='high' to print the bands.

!    total energy              =    -139.57193867 Ry
     Harris-Foulkes estimate   =    -139.57193883 Ry
     estimated scf accuracy    <       0.00000020 Ry

     The total energy is the sum of the following terms:

     one-electron contribution =     -20.17664216 Ry
     hartree contribution      =      24.86463390 Ry
     xc contribution           =     -26.22434408 Ry
     ewald contribution        =    -118.03558632 Ry

     convergence has been achieved in  10 iterations

     Forces acting on atoms (Ry/au):

     atom    1 type  3   force =     0.00016234   -0.00009373    0.00225055
     atom    2 type  2   force =     0.18269548   -0.10547929   -0.14227636
     atom    3 type  2   force =    -0.17759261    0.10253314    0.13416819
     atom    4 type  1   force =     0.06291293   -0.03632280   -0.01697616
     atom    5 type  1   force =    -0.06817813    0.03936266    0.02283378

     Total force =     0.370255     Total SCF correction =     0.000414


     entering subroutine stress ...

          total   stress  (Ry/bohr**3)                   (kbar)     P=  528.71
   0.00235105   0.00313004   0.00032411        345.85    460.44     47.68
   0.00313004   0.00596531  -0.00018713        460.44    877.53    -27.53
   0.00032411  -0.00018713   0.00246603         47.68    -27.53    362.77


     number of scf cycles    =   3
     number of bfgs steps    =   2

     enthalpy old            =    -137.9284014493 Ry
     enthalpy new            =    -138.1921643891 Ry

     CASE: enthalpy_new < enthalpy_old

     new trust radius        =       0.7388765843 bohr
     new conv_thr            =       0.0000010000 Ry

     new unit-cell volume =    187.22540 a.u.^3 (    27.74394 Ang^3 )

CELL_PARAMETERS (alat=  5.86000000)
   1.152395708   0.106457828   0.052426704
  -0.484002671   1.051232873  -0.052426704
   0.082030962  -0.047360598   0.741940783

ATOMIC_POSITIONS (crystal)
Ca      -0.000020861   0.000020861  -0.000185079
O        0.313393042   0.686606958   0.399594703
O        0.687134902   0.312865098   0.614848373
H        0.514381748   0.485618252   0.701510999
H        0.485111169   0.514888831   0.294231004



     Writing output data file CaOH2_ambient.save
     NEW-OLD atomic charge density approx. for the potential
     NEW k-points: (use verbosity='high' to print them)
     extrapolated charge   19.49969, renormalised to   24.00000

     total cpu time spent up to now is     1837.3 secs

     per-process dynamical memory:    17.6 Mb

     Self-consistent Calculation

     iteration #  1     ecut=   100.00 Ry     beta=0.30
     Davidson diagonalization with overlap
     ethr =  1.00E-06,  avg # of iterations =  7.4

     total cpu time spent up to now is     1914.8 secs

     total energy              =    -138.46426087 Ry
     Harris-Foulkes estimate   =    -141.19526620 Ry
     estimated scf accuracy    <       1.80652186 Ry

     iteration #  2     ecut=   100.00 Ry     beta=0.30
     Davidson diagonalization with overlap
     ethr =  7.53E-03,  avg # of iterations =  2.2

     total cpu time spent up to now is     1946.4 secs

     total energy              =    -139.41756991 Ry
     Harris-Foulkes estimate   =    -139.43766986 Ry
     estimated scf accuracy    <       0.12253379 Ry

     iteration #  3     ecut=   100.00 Ry     beta=0.30
     Davidson diagonalization with overlap
     ethr =  5.11E-04,  avg # of iterations =  1.9

     total cpu time spent up to now is     1968.9 secs

     total energy              =    -139.37938183 Ry
     Harris-Foulkes estimate   =    -139.42359798 Ry
     estimated scf accuracy    <       0.07736141 Ry

     iteration #  4     ecut=   100.00 Ry     beta=0.30
     Davidson diagonalization with overlap
     ethr =  3.22E-04,  avg # of iterations =  2.1

     total cpu time spent up to now is     1996.8 secs

     total energy              =    -139.39436685 Ry
     Harris-Foulkes estimate   =    -139.39699208 Ry
     estimated scf accuracy    <       0.00915309 Ry

     iteration #  5     ecut=   100.00 Ry     beta=0.30
     Davidson diagonalization with overlap
     ethr =  3.81E-05,  avg # of iterations =  2.0

     total cpu time spent up to now is     2020.1 secs

     total energy              =    -139.39328777 Ry
     Harris-Foulkes estimate   =    -139.39497543 Ry
     estimated scf accuracy    <       0.00283808 Ry

     iteration #  6     ecut=   100.00 Ry     beta=0.30
     Davidson diagonalization with overlap
     ethr =  1.18E-05,  avg # of iterations =  2.0

     total cpu time spent up to now is     2049.3 secs

     total energy              =    -139.39416084 Ry
     Harris-Foulkes estimate   =    -139.39436029 Ry
     estimated scf accuracy    <       0.00116573 Ry

     iteration #  7     ecut=   100.00 Ry     beta=0.30
     Davidson diagonalization with overlap
     ethr =  4.86E-06,  avg # of iterations =  1.0

     total cpu time spent up to now is     2070.3 secs

     total energy              =    -139.39376422 Ry
     Harris-Foulkes estimate   =    -139.39418319 Ry
     estimated scf accuracy    <       0.00066851 Ry

     iteration #  8     ecut=   100.00 Ry     beta=0.30
     Davidson diagonalization with overlap
     ethr =  2.79E-06,  avg # of iterations =  2.5

     total cpu time spent up to now is     2101.1 secs

     total energy              =    -139.39396980 Ry
     Harris-Foulkes estimate   =    -139.39401542 Ry
     estimated scf accuracy    <       0.00009831 Ry

     iteration #  9     ecut=   100.00 Ry     beta=0.30
     Davidson diagonalization with overlap
     ethr =  4.10E-07,  avg # of iterations =  2.0

     total cpu time spent up to now is     2128.7 secs

     total energy              =    -139.39398588 Ry
     Harris-Foulkes estimate   =    -139.39398782 Ry
     estimated scf accuracy    <       0.00000401 Ry

     iteration # 10     ecut=   100.00 Ry     beta=0.30
     Davidson diagonalization with overlap
     ethr =  1.67E-08,  avg # of iterations =  2.0

     total cpu time spent up to now is     2157.2 secs

     End of self-consistent calculation

     Number of k-points >= 100: set verbosity='high' to print the bands.

!    total energy              =    -139.39398646 Ry
     Harris-Foulkes estimate   =    -139.39398651 Ry
     estimated scf accuracy    <       0.00000011 Ry

     The total energy is the sum of the following terms:

     one-electron contribution =      -9.07160075 Ry
     hartree contribution      =      21.58836604 Ry
     xc contribution           =     -26.72289419 Ry
     ewald contribution        =    -125.18785755 Ry

     convergence has been achieved in  10 iterations

     Forces acting on atoms (Ry/au):

     atom    1 type  3   force =    -0.00102466    0.00059159    0.00456508
     atom    2 type  2   force =     0.05748068   -0.03318649   -0.06587300
     atom    3 type  2   force =    -0.05966853    0.03444964    0.06685004
     atom    4 type  1   force =     0.03007109   -0.01736155    0.09039703
     atom    5 type  1   force =    -0.02685859    0.01550681   -0.09593915

     Total force =     0.193717     Total SCF correction =     0.000280


     entering subroutine stress ...

          total   stress  (Ry/bohr**3)                   (kbar)     P= 1030.56
   0.00397599  -0.00003490   0.00063066        584.89     -5.13     92.77
  -0.00003490   0.00393569  -0.00036411         -5.13    578.96    -53.56
   0.00063066  -0.00036411   0.01310520         92.77    -53.56   1927.84


     number of scf cycles    =   4
     number of bfgs steps    =   3

     enthalpy old            =    -138.1921643891 Ry
     enthalpy new            =    -138.2485271219 Ry

     CASE: enthalpy_new < enthalpy_old

     new trust radius        =       0.6183081344 bohr
     new conv_thr            =       0.0000009594 Ry

     new unit-cell volume =    215.34768 a.u.^3 (    31.91123 Ang^3 )

CELL_PARAMETERS (alat=  5.86000000)
   1.117214123   0.102659211   0.046948983
  -0.469701577   1.018865418  -0.046948983
   0.090500449  -0.052250459   0.907291386

ATOMIC_POSITIONS (crystal)
Ca      -0.000080297   0.000080297  -0.000007983
O        0.319232272   0.680767728   0.399406836
O        0.681163962   0.318836038   0.614509984
H        0.515580567   0.484419433   0.702916941
H        0.484103497   0.515896503   0.293174221



     Writing output data file CaOH2_ambient.save
     NEW-OLD atomic charge density approx. for the potential
     NEW k-points: (use verbosity='high' to print them)
     extrapolated charge   26.87298, renormalised to   24.00000

     total cpu time spent up to now is     2247.9 secs

     per-process dynamical memory:    17.6 Mb

     Self-consistent Calculation

     iteration #  1     ecut=   100.00 Ry     beta=0.30
     Davidson diagonalization with overlap
     ethr =  1.00E-06,  avg # of iterations =  7.2

     total cpu time spent up to now is     2321.2 secs

     total energy              =    -139.21993864 Ry
     Harris-Foulkes estimate   =    -138.00055942 Ry
     estimated scf accuracy    <       0.44915913 Ry

     iteration #  2     ecut=   100.00 Ry     beta=0.30
     Davidson diagonalization with overlap
     ethr =  1.87E-03,  avg # of iterations =  3.0

     total cpu time spent up to now is     2358.2 secs

     total energy              =    -139.70831179 Ry
     Harris-Foulkes estimate   =    -139.73433619 Ry
     estimated scf accuracy    <       0.18518723 Ry

     iteration #  3     ecut=   100.00 Ry     beta=0.30
     Davidson diagonalization with overlap
     ethr =  7.72E-04,  avg # of iterations =  1.0

     total cpu time spent up to now is     2380.3 secs

     total energy              =    -139.64033216 Ry
     Harris-Foulkes estimate   =    -139.71025461 Ry
     estimated scf accuracy    <       0.11640553 Ry

     iteration #  4     ecut=   100.00 Ry     beta=0.30
     Davidson diagonalization with overlap
     ethr =  4.85E-04,  avg # of iterations =  2.0

     total cpu time spent up to now is     2408.5 secs

     total energy              =    -139.67414988 Ry
     Harris-Foulkes estimate   =    -139.67746789 Ry
     estimated scf accuracy    <       0.01611128 Ry

     iteration #  5     ecut=   100.00 Ry     beta=0.30
     Davidson diagonalization with overlap
     ethr =  6.71E-05,  avg # of iterations =  1.1

     total cpu time spent up to now is     2429.9 secs

     total energy              =    -139.67084331 Ry
     Harris-Foulkes estimate   =    -139.67464233 Ry
     estimated scf accuracy    <       0.00760375 Ry

     iteration #  6     ecut=   100.00 Ry     beta=0.30
     Davidson diagonalization with overlap
     ethr =  3.17E-05,  avg # of iterations =  2.0

     total cpu time spent up to now is     2457.4 secs

     total energy              =    -139.67251496 Ry
     Harris-Foulkes estimate   =    -139.67252823 Ry
     estimated scf accuracy    <       0.00012226 Ry

     iteration #  7     ecut=   100.00 Ry     beta=0.30
     Davidson diagonalization with overlap
     ethr =  5.09E-07,  avg # of iterations =  2.1

     total cpu time spent up to now is     2481.8 secs

     total energy              =    -139.67247928 Ry
     Harris-Foulkes estimate   =    -139.67252452 Ry
     estimated scf accuracy    <       0.00008939 Ry

     iteration #  8     ecut=   100.00 Ry     beta=0.30
     Davidson diagonalization with overlap
     ethr =  3.72E-07,  avg # of iterations =  2.0

     total cpu time spent up to now is     2511.2 secs

     total energy              =    -139.67249499 Ry
     Harris-Foulkes estimate   =    -139.67249610 Ry
     estimated scf accuracy    <       0.00000530 Ry

     iteration #  9     ecut=   100.00 Ry     beta=0.30
     Davidson diagonalization with overlap
     ethr =  2.21E-08,  avg # of iterations =  2.0

     total cpu time spent up to now is     2537.7 secs

     total energy              =    -139.67249534 Ry
     Harris-Foulkes estimate   =    -139.67249579 Ry
     estimated scf accuracy    <       0.00000164 Ry

     iteration # 10     ecut=   100.00 Ry     beta=0.30
     Davidson diagonalization with overlap
     ethr =  6.84E-09,  avg # of iterations =  2.0

     total cpu time spent up to now is     2560.0 secs

     End of self-consistent calculation

     Number of k-points >= 100: set verbosity='high' to print the bands.

!    total energy              =    -139.67249536 Ry
     Harris-Foulkes estimate   =    -139.67249545 Ry
     estimated scf accuracy    <       0.00000013 Ry

     The total energy is the sum of the following terms:

     one-electron contribution =     -19.00915805 Ry
     hartree contribution      =      24.63494514 Ry
     xc contribution           =     -26.55083663 Ry
     ewald contribution        =    -118.74744583 Ry

     convergence has been achieved in  10 iterations

     Forces acting on atoms (Ry/au):

     atom    1 type  3   force =    -0.00004116    0.00002377    0.00361035
     atom    2 type  2   force =    -0.06442830    0.03719770   -0.07703406
     atom    3 type  2   force =     0.07011842   -0.04048289    0.07824082
     atom    4 type  1   force =    -0.05539410    0.03198180    0.05659736
     atom    5 type  1   force =     0.04974514   -0.02872037   -0.06141447

     Total force =     0.196277     Total SCF correction =     0.000704


     entering subroutine stress ...

          total   stress  (Ry/bohr**3)                   (kbar)     P=  653.20
   0.00434940   0.00000907   0.00037137        639.82      1.33     54.63
   0.00000907   0.00435987  -0.00021441          1.33    641.36    -31.54
   0.00037137  -0.00021441   0.00461188         54.63    -31.54    678.43


     number of scf cycles    =   5
     number of bfgs steps    =   4

     enthalpy old            =    -138.2485271219 Ry
     enthalpy new            =    -138.3549817169 Ry

     CASE: enthalpy_new < enthalpy_old

     new trust radius        =       0.1307124784 bohr
     new conv_thr            =       0.0000007824 Ry

     new unit-cell volume =    201.44881 a.u.^3 (    29.85163 Ang^3 )

CELL_PARAMETERS (alat=  5.86000000)
   1.083476761   0.105651502   0.057162829
  -0.450241496   0.991144150  -0.057162829
   0.114915225  -0.066346336   0.901237725

ATOMIC_POSITIONS (crystal)
Ca      -0.000080736   0.000080736   0.000303604
O        0.311952917   0.688047083   0.392379722
O        0.688992797   0.311007203   0.621822411
H        0.510574866   0.489425134   0.708138628
H        0.488560156   0.511439844   0.287355635



     Writing output data file CaOH2_ambient.save
     NEW-OLD atomic charge density approx. for the potential
     NEW k-points: (use verbosity='high' to print them)
     extrapolated charge   22.48212, renormalised to   24.00000

     total cpu time spent up to now is     2650.5 secs

     per-process dynamical memory:    17.6 Mb

     Self-consistent Calculation

     iteration #  1     ecut=   100.00 Ry     beta=0.30
     Davidson diagonalization with overlap
     ethr =  1.00E-06,  avg # of iterations =  6.6

     total cpu time spent up to now is     2714.3 secs

     total energy              =    -139.49360804 Ry
     Harris-Foulkes estimate   =    -140.42392657 Ry
     estimated scf accuracy    <       0.16961165 Ry

     iteration #  2     ecut=   100.00 Ry     beta=0.30
     Davidson diagonalization with overlap
     ethr =  7.07E-04,  avg # of iterations =  3.0

     total cpu time spent up to now is     2748.1 secs

     total energy              =    -139.62696460 Ry
     Harris-Foulkes estimate   =    -139.63074917 Ry
     estimated scf accuracy    <       0.02382313 Ry

     iteration #  3     ecut=   100.00 Ry     beta=0.30
     Davidson diagonalization with overlap
     ethr =  9.93E-05,  avg # of iterations =  1.0

     total cpu time spent up to now is     2769.0 secs

     total energy              =    -139.61918901 Ry
     Harris-Foulkes estimate   =    -139.62751870 Ry
     estimated scf accuracy    <       0.01360656 Ry

     iteration #  4     ecut=   100.00 Ry     beta=0.30
     Davidson diagonalization with overlap
     ethr =  5.67E-05,  avg # of iterations =  2.3

     total cpu time spent up to now is     2798.1 secs

     total energy              =    -139.62332335 Ry
     Harris-Foulkes estimate   =    -139.62463842 Ry
     estimated scf accuracy    <       0.00310292 Ry

     iteration #  5     ecut=   100.00 Ry     beta=0.30
     Davidson diagonalization with overlap
     ethr =  1.29E-05,  avg # of iterations =  2.0

     total cpu time spent up to now is     2824.6 secs

     total energy              =    -139.62363711 Ry
     Harris-Foulkes estimate   =    -139.62375184 Ry
     estimated scf accuracy    <       0.00020207 Ry

     iteration #  6     ecut=   100.00 Ry     beta=0.30
     Davidson diagonalization with overlap
     ethr =  8.42E-07,  avg # of iterations =  2.0

     total cpu time spent up to now is     2854.5 secs

     total energy              =    -139.62367797 Ry
     Harris-Foulkes estimate   =    -139.62368288 Ry
     estimated scf accuracy    <       0.00003439 Ry

     iteration #  7     ecut=   100.00 Ry     beta=0.30
     Davidson diagonalization with overlap
     ethr =  1.43E-07,  avg # of iterations =  1.0

     total cpu time spent up to now is     2875.4 secs

     total energy              =    -139.62366804 Ry
     Harris-Foulkes estimate   =    -139.62367862 Ry
     estimated scf accuracy    <       0.00001967 Ry

     iteration #  8     ecut=   100.00 Ry     beta=0.30
     Davidson diagonalization with overlap
     ethr =  8.20E-08,  avg # of iterations =  2.0

     total cpu time spent up to now is     2903.1 secs

     End of self-consistent calculation

     Number of k-points >= 100: set verbosity='high' to print the bands.

!    total energy              =    -139.62367306 Ry
     Harris-Foulkes estimate   =    -139.62367366 Ry
     estimated scf accuracy    <       0.00000078 Ry

     The total energy is the sum of the following terms:

     one-electron contribution =     -14.72878974 Ry
     hartree contribution      =      23.51629156 Ry
     xc contribution           =     -26.66050820 Ry
     ewald contribution        =    -121.75066669 Ry

     convergence has been achieved in   8 iterations

     Forces acting on atoms (Ry/au):

     atom    1 type  3   force =     0.00022846   -0.00013190    0.00613433
     atom    2 type  2   force =     0.01316919   -0.00760324   -0.10781464
     atom    3 type  2   force =    -0.01908633    0.01101950    0.10939294
     atom    4 type  1   force =    -0.01941903    0.01121158    0.03487632
     atom    5 type  1   force =     0.02510771   -0.01449594   -0.04258895

     Total force =     0.169467     Total SCF correction =     0.001044


     entering subroutine stress ...

          total   stress  (Ry/bohr**3)                   (kbar)     P=  895.56
   0.00563837   0.00081295   0.00003837        829.43    119.59      5.64
   0.00081295   0.00657709  -0.00002215        119.59    967.52     -3.26
   0.00003837  -0.00002215   0.00604815          5.64     -3.26    889.71


     number of scf cycles    =   6
     number of bfgs steps    =   5

     enthalpy old            =    -138.3549817169 Ry
     enthalpy new            =    -138.3911938171 Ry

     CASE: enthalpy_new < enthalpy_old

     new trust radius        =       0.1793617053 bohr
     new conv_thr            =       0.0000010000 Ry

     new unit-cell volume =    193.37081 a.u.^3 (    28.65460 Ang^3 )

CELL_PARAMETERS (alat=  5.86000000)
   1.051852071   0.137341561   0.069174253
  -0.406984755   0.979601395  -0.069174253
   0.147968664  -0.085429748   0.898642113

ATOMIC_POSITIONS (crystal)
Ca      -0.000002969   0.000002969   0.001244955
O        0.307658835   0.692341165   0.370504112
O        0.692771555   0.307228445   0.644331083
H        0.506197118   0.493802882   0.716217446
H        0.493375460   0.506624540   0.277702404



     Writing output data file CaOH2_ambient.save
     NEW-OLD atomic charge density approx. for the potential
     NEW k-points: (use verbosity='high' to print them)
     extrapolated charge   23.08096, renormalised to   24.00000

     total cpu time spent up to now is     2994.7 secs

     per-process dynamical memory:    17.6 Mb

     Self-consistent Calculation

     iteration #  1     ecut=   100.00 Ry     beta=0.30
     Davidson diagonalization with overlap
     ethr =  1.00E-06,  avg # of iterations =  7.0

     total cpu time spent up to now is     3059.8 secs

     total energy              =    -139.55505006 Ry
     Harris-Foulkes estimate   =    -140.05111070 Ry
     estimated scf accuracy    <       0.07618384 Ry

     iteration #  2     ecut=   100.00 Ry     beta=0.30
     Davidson diagonalization with overlap
     ethr =  3.17E-04,  avg # of iterations =  3.0

     total cpu time spent up to now is     3092.9 secs

     total energy              =    -139.60367126 Ry
     Harris-Foulkes estimate   =    -139.60472949 Ry
     estimated scf accuracy    <       0.00759636 Ry

     iteration #  3     ecut=   100.00 Ry     beta=0.30
     Davidson diagonalization with overlap
     ethr =  3.17E-05,  avg # of iterations =  1.3

     total cpu time spent up to now is     3114.0 secs

     total energy              =    -139.60138588 Ry
     Harris-Foulkes estimate   =    -139.60388535 Ry
     estimated scf accuracy    <       0.00459654 Ry

     iteration #  4     ecut=   100.00 Ry     beta=0.30
     Davidson diagonalization with overlap
     ethr =  1.92E-05,  avg # of iterations =  2.1

     total cpu time spent up to now is     3142.0 secs

     total energy              =    -139.60253560 Ry
     Harris-Foulkes estimate   =    -139.60284027 Ry
     estimated scf accuracy    <       0.00103495 Ry

     iteration #  5     ecut=   100.00 Ry     beta=0.30
     Davidson diagonalization with overlap
     ethr =  4.31E-06,  avg # of iterations =  1.6

     total cpu time spent up to now is     3163.6 secs

     total energy              =    -139.60242306 Ry
     Harris-Foulkes estimate   =    -139.60259045 Ry
     estimated scf accuracy    <       0.00028395 Ry

     iteration #  6     ecut=   100.00 Ry     beta=0.30
     Davidson diagonalization with overlap
     ethr =  1.18E-06,  avg # of iterations =  2.0

     total cpu time spent up to now is     3192.1 secs

     total energy              =    -139.60251705 Ry
     Harris-Foulkes estimate   =    -139.60252718 Ry
     estimated scf accuracy    <       0.00005268 Ry

     iteration #  7     ecut=   100.00 Ry     beta=0.30
     Davidson diagonalization with overlap
     ethr =  2.19E-07,  avg # of iterations =  1.0

     total cpu time spent up to now is     3213.0 secs

     total energy              =    -139.60250458 Ry
     Harris-Foulkes estimate   =    -139.60251858 Ry
     estimated scf accuracy    <       0.00002608 Ry

     iteration #  8     ecut=   100.00 Ry     beta=0.30
     Davidson diagonalization with overlap
     ethr =  1.09E-07,  avg # of iterations =  2.0

     total cpu time spent up to now is     3240.4 secs

     End of self-consistent calculation

     Number of k-points >= 100: set verbosity='high' to print the bands.

!    total energy              =    -139.60251110 Ry
     Harris-Foulkes estimate   =    -139.60251159 Ry
     estimated scf accuracy    <       0.00000076 Ry

     The total energy is the sum of the following terms:

     one-electron contribution =     -12.81640441 Ry
     hartree contribution      =      23.17781044 Ry
     xc contribution           =     -26.79728343 Ry
     ewald contribution        =    -123.16663371 Ry

     convergence has been achieved in   8 iterations

     Forces acting on atoms (Ry/au):

     atom    1 type  3   force =    -0.00058854    0.00033980    0.00956928
     atom    2 type  2   force =     0.00588056   -0.00339514   -0.10993162
     atom    3 type  2   force =    -0.01202168    0.00694072    0.11130279
     atom    4 type  1   force =    -0.03752125    0.02166290    0.02644658
     atom    5 type  1   force =     0.04425091   -0.02554827   -0.03738703

     Total force =     0.177170     Total SCF correction =     0.001221


     entering subroutine stress ...

          total   stress  (Ry/bohr**3)                   (kbar)     P= 1098.84
   0.00730653  -0.00028010  -0.00053625       1074.83    -41.20    -78.89
  -0.00028010   0.00698310   0.00030961        -41.20   1027.25     45.54
  -0.00053625   0.00030961   0.00811962        -78.89     45.54   1194.44


     number of scf cycles    =   7
     number of bfgs steps    =   6

     enthalpy old            =    -138.3911938171 Ry
     enthalpy new            =    -138.4194536636 Ry

     CASE: enthalpy_new < enthalpy_old

     new trust radius        =       0.2349935422 bohr
     new conv_thr            =       0.0000010000 Ry

     new unit-cell volume =    191.28935 a.u.^3 (    28.34616 Ang^3 )

CELL_PARAMETERS (alat=  5.86000000)
   1.012671777   0.170764104   0.065060825
  -0.358449836   0.962381537  -0.065060825
   0.160539623  -0.092687595   0.932992012

ATOMIC_POSITIONS (crystal)
Ca       0.000115612  -0.000115612   0.003523737
O        0.302088908   0.697911092   0.330545566
O        0.697414351   0.302585649   0.684795825
H        0.493279637   0.506720363   0.728978325
H        0.507101493   0.492898507   0.262156547



     Writing output data file CaOH2_ambient.save
     NEW-OLD atomic charge density approx. for the potential
     NEW k-points: (use verbosity='high' to print them)
     extrapolated charge   23.76061, renormalised to   24.00000

     total cpu time spent up to now is     3330.7 secs

     per-process dynamical memory:    17.6 Mb

     Self-consistent Calculation

     iteration #  1     ecut=   100.00 Ry     beta=0.30
     Davidson diagonalization with overlap
     ethr =  1.00E-06,  avg # of iterations =  7.5

     total cpu time spent up to now is     3404.5 secs

     total energy              =    -139.61972973 Ry
     Harris-Foulkes estimate   =    -139.73975173 Ry
     estimated scf accuracy    <       0.03194556 Ry

     iteration #  2     ecut=   100.00 Ry     beta=0.30
     Davidson diagonalization with overlap
     ethr =  1.33E-04,  avg # of iterations =  2.0

     total cpu time spent up to now is     3430.1 secs

     total energy              =    -139.61884057 Ry
     Harris-Foulkes estimate   =    -139.62304428 Ry
     estimated scf accuracy    <       0.01807008 Ry

     iteration #  3     ecut=   100.00 Ry     beta=0.30
     Davidson diagonalization with overlap
     ethr =  7.53E-05,  avg # of iterations =  1.0

     total cpu time spent up to now is     3451.0 secs

     total energy              =    -139.61449341 Ry
     Harris-Foulkes estimate   =    -139.61917903 Ry
     estimated scf accuracy    <       0.00833216 Ry

     iteration #  4     ecut=   100.00 Ry     beta=0.30
     Davidson diagonalization with overlap
     ethr =  3.47E-05,  avg # of iterations =  2.1

     total cpu time spent up to now is     3477.9 secs

     total energy              =    -139.61604670 Ry
     Harris-Foulkes estimate   =    -139.61618302 Ry
     estimated scf accuracy    <       0.00040381 Ry

     iteration #  5     ecut=   100.00 Ry     beta=0.30
     Davidson diagonalization with overlap
     ethr =  1.68E-06,  avg # of iterations =  2.0

     total cpu time spent up to now is     3505.5 secs

     total energy              =    -139.61607109 Ry
     Harris-Foulkes estimate   =    -139.61611124 Ry
     estimated scf accuracy    <       0.00010361 Ry

     iteration #  6     ecut=   100.00 Ry     beta=0.30
     Davidson diagonalization with overlap
     ethr =  4.32E-07,  avg # of iterations =  2.0

     total cpu time spent up to now is     3533.5 secs

     total energy              =    -139.61607791 Ry
     Harris-Foulkes estimate   =    -139.61608901 Ry
     estimated scf accuracy    <       0.00005020 Ry

     iteration #  7     ecut=   100.00 Ry     beta=0.30
     Davidson diagonalization with overlap
     ethr =  2.09E-07,  avg # of iterations =  1.0

     total cpu time spent up to now is     3554.3 secs

     total energy              =    -139.61606696 Ry
     Harris-Foulkes estimate   =    -139.61607912 Ry
     estimated scf accuracy    <       0.00002325 Ry

     iteration #  8     ecut=   100.00 Ry     beta=0.30
     Davidson diagonalization with overlap
     ethr =  9.69E-08,  avg # of iterations =  2.0

     total cpu time spent up to now is     3581.8 secs

     End of self-consistent calculation

     Number of k-points >= 100: set verbosity='high' to print the bands.

!    total energy              =    -139.61607206 Ry
     Harris-Foulkes estimate   =    -139.61607257 Ry
     estimated scf accuracy    <       0.00000090 Ry

     The total energy is the sum of the following terms:

     one-electron contribution =     -12.21622236 Ry
     hartree contribution      =      23.06451155 Ry
     xc contribution           =     -26.79162659 Ry
     ewald contribution        =    -123.67273466 Ry

     convergence has been achieved in   8 iterations

     Forces acting on atoms (Ry/au):

     atom    1 type  3   force =     0.00257916   -0.00148908    0.00766779
     atom    2 type  2   force =     0.06398022   -0.03693900   -0.02607226
     atom    3 type  2   force =    -0.07028526    0.04057921    0.02660884
     atom    4 type  1   force =     0.00650544   -0.00375592   -0.00555287
     atom    5 type  1   force =    -0.00277956    0.00160478   -0.00265149

     Total force =     0.116639     Total SCF correction =     0.002303


     entering subroutine stress ...

          total   stress  (Ry/bohr**3)                   (kbar)     P= 1143.68
   0.00823926  -0.00162012   0.00094460       1212.04   -238.33    138.96
  -0.00162012   0.00636851  -0.00054536       -238.33    936.84    -80.23
   0.00094460  -0.00054536   0.00871592        138.96    -80.23   1282.16


     number of scf cycles    =   8
     number of bfgs steps    =   7

     enthalpy old            =    -138.4194536636 Ry
     enthalpy new            =    -138.4457491595 Ry

     CASE: enthalpy_new < enthalpy_old

     new trust radius        =       0.0791719709 bohr
     new conv_thr            =       0.0000007029 Ry

     new unit-cell volume =    198.44968 a.u.^3 (    29.40721 Ang^3 )

CELL_PARAMETERS (alat=  5.86000000)
   1.026829226   0.155262163   0.074853358
  -0.378953635   0.966891277  -0.074853358
   0.182590284  -0.105418550   0.957175764

ATOMIC_POSITIONS (crystal)
Ca       0.000392082  -0.000392082   0.004433911
O        0.306817560   0.693182440   0.323750745
O        0.692208017   0.307791983   0.691391659
H        0.490792550   0.509207450   0.730096166
H        0.509789792   0.490210208   0.260327519



     Writing output data file CaOH2_ambient.save
     NEW-OLD atomic charge density approx. for the potential
     NEW k-points: (use verbosity='high' to print them)
     extrapolated charge   24.79379, renormalised to   24.00000

     total cpu time spent up to now is     3672.1 secs

     per-process dynamical memory:    17.6 Mb

     Self-consistent Calculation

     iteration #  1     ecut=   100.00 Ry     beta=0.30
     Davidson diagonalization with overlap
     ethr =  1.00E-06,  avg # of iterations =  5.9

     total cpu time spent up to now is     3730.6 secs

     total energy              =    -139.64904944 Ry
     Harris-Foulkes estimate   =    -139.28479037 Ry
     estimated scf accuracy    <       0.05061503 Ry

     iteration #  2     ecut=   100.00 Ry     beta=0.30
     Davidson diagonalization with overlap
     ethr =  2.11E-04,  avg # of iterations =  3.0

     total cpu time spent up to now is     3765.3 secs

     total energy              =    -139.68620978 Ry
     Harris-Foulkes estimate   =    -139.68748207 Ry
     estimated scf accuracy    <       0.00764024 Ry

     iteration #  3     ecut=   100.00 Ry     beta=0.30
     Davidson diagonalization with overlap
     ethr =  3.18E-05,  avg # of iterations =  1.0

     total cpu time spent up to now is     3786.3 secs

     total energy              =    -139.68351617 Ry
     Harris-Foulkes estimate   =    -139.68635188 Ry
     estimated scf accuracy    <       0.00449178 Ry

     iteration #  4     ecut=   100.00 Ry     beta=0.30
     Davidson diagonalization with overlap
     ethr =  1.87E-05,  avg # of iterations =  2.0

     total cpu time spent up to now is     3814.6 secs

     total energy              =    -139.68484265 Ry
     Harris-Foulkes estimate   =    -139.68509399 Ry
     estimated scf accuracy    <       0.00096197 Ry

     iteration #  5     ecut=   100.00 Ry     beta=0.30
     Davidson diagonalization with overlap
     ethr =  4.01E-06,  avg # of iterations =  1.0

     total cpu time spent up to now is     3835.7 secs

     total energy              =    -139.68469825 Ry
     Harris-Foulkes estimate   =    -139.68488124 Ry
     estimated scf accuracy    <       0.00033361 Ry

     iteration #  6     ecut=   100.00 Ry     beta=0.30
     Davidson diagonalization with overlap
     ethr =  1.39E-06,  avg # of iterations =  2.0

     total cpu time spent up to now is     3866.5 secs

     total energy              =    -139.68479303 Ry
     Harris-Foulkes estimate   =    -139.68479566 Ry
     estimated scf accuracy    <       0.00001967 Ry

     iteration #  7     ecut=   100.00 Ry     beta=0.30
     Davidson diagonalization with overlap
     ethr =  8.20E-08,  avg # of iterations =  1.4

     total cpu time spent up to now is     3887.7 secs

     total energy              =    -139.68478718 Ry
     Harris-Foulkes estimate   =    -139.68479381 Ry
     estimated scf accuracy    <       0.00001260 Ry

     iteration #  8     ecut=   100.00 Ry     beta=0.30
     Davidson diagonalization with overlap
     ethr =  5.25E-08,  avg # of iterations =  2.0

     total cpu time spent up to now is     3915.1 secs

     End of self-consistent calculation

     Number of k-points >= 100: set verbosity='high' to print the bands.

!    total energy              =    -139.68479013 Ry
     Harris-Foulkes estimate   =    -139.68479031 Ry
     estimated scf accuracy    <       0.00000032 Ry

     The total energy is the sum of the following terms:

     one-electron contribution =     -14.19691843 Ry
     hartree contribution      =      23.50424831 Ry
     xc contribution           =     -26.67928301 Ry
     ewald contribution        =    -122.31283700 Ry

     convergence has been achieved in   8 iterations

     Forces acting on atoms (Ry/au):

     atom    1 type  3   force =    -0.00230338    0.00132986    0.00352668
     atom    2 type  2   force =     0.02663817   -0.01537956   -0.02225860
     atom    3 type  2   force =    -0.02844559    0.01642307    0.02525403
     atom    4 type  1   force =     0.01797605   -0.01037848   -0.00523061
     atom    5 type  1   force =    -0.01386525    0.00800511   -0.00129149

     Total force =     0.062401     Total SCF correction =     0.000542


     entering subroutine stress ...

          total   stress  (Ry/bohr**3)                   (kbar)     P=  930.70
   0.00619230  -0.00043200  -0.00006414        910.92    -63.55     -9.44
  -0.00043200   0.00569347   0.00003703        -63.55    837.54      5.45
  -0.00006414   0.00003703   0.00709450         -9.44      5.45   1043.64


     number of scf cycles    =   9
     number of bfgs steps    =   8

     enthalpy old            =    -138.4457491595 Ry
     enthalpy new            =    -138.4706597949 Ry

     CASE: enthalpy_new < enthalpy_old

     new trust radius        =       0.0747985119 bohr
     new conv_thr            =       0.0000002845 Ry

     new unit-cell volume =    200.80914 a.u.^3 (    29.75684 Ang^3 )

CELL_PARAMETERS (alat=  5.86000000)
   1.022748453   0.147196348   0.072883220
  -0.383898450   0.959324316  -0.072883220
   0.187674381  -0.108353855   0.981142884

ATOMIC_POSITIONS (crystal)
Ca       0.000186665  -0.000186665   0.005158460
O        0.308926587   0.691073413   0.316517985
O        0.689776879   0.310223121   0.698978104
H        0.490556932   0.509443068   0.731891706
H        0.510552937   0.489447063   0.257453746



     Writing output data file CaOH2_ambient.save
     NEW-OLD atomic charge density approx. for the potential
     NEW k-points: (use verbosity='high' to print them)
     extrapolated charge   24.25849, renormalised to   24.00000

     total cpu time spent up to now is     4006.1 secs

     per-process dynamical memory:    17.6 Mb

     Self-consistent Calculation

     iteration #  1     ecut=   100.00 Ry     beta=0.30
     Davidson diagonalization with overlap
     ethr =  1.00E-06,  avg # of iterations =  5.1

     total cpu time spent up to now is     4061.1 secs

     total energy              =    -139.70164281 Ry
     Harris-Foulkes estimate   =    -139.56805454 Ry
     estimated scf accuracy    <       0.00673213 Ry

     iteration #  2     ecut=   100.00 Ry     beta=0.30
     Davidson diagonalization with overlap
     ethr =  2.81E-05,  avg # of iterations =  3.0

     total cpu time spent up to now is     4095.4 secs

     total energy              =    -139.70540723 Ry
     Harris-Foulkes estimate   =    -139.70569269 Ry
     estimated scf accuracy    <       0.00186244 Ry

     iteration #  3     ecut=   100.00 Ry     beta=0.30
     Davidson diagonalization with overlap
     ethr =  7.76E-06,  avg # of iterations =  1.0

     total cpu time spent up to now is     4116.7 secs

     total energy              =    -139.70469943 Ry
     Harris-Foulkes estimate   =    -139.70543283 Ry
     estimated scf accuracy    <       0.00118683 Ry

     iteration #  4     ecut=   100.00 Ry     beta=0.30
     Davidson diagonalization with overlap
     ethr =  4.95E-06,  avg # of iterations =  2.0

     total cpu time spent up to now is     4144.9 secs

     total energy              =    -139.70497674 Ry
     Harris-Foulkes estimate   =    -139.70501506 Ry
     estimated scf accuracy    <       0.00015458 Ry

     iteration #  5     ecut=   100.00 Ry     beta=0.30
     Davidson diagonalization with overlap
     ethr =  6.44E-07,  avg # of iterations =  1.1

     total cpu time spent up to now is     4166.6 secs

     total energy              =    -139.70494999 Ry
     Harris-Foulkes estimate   =    -139.70498270 Ry
     estimated scf accuracy    <       0.00006057 Ry

     iteration #  6     ecut=   100.00 Ry     beta=0.30
     Davidson diagonalization with overlap
     ethr =  2.52E-07,  avg # of iterations =  2.0

     total cpu time spent up to now is     4194.9 secs

     total energy              =    -139.70496869 Ry
     Harris-Foulkes estimate   =    -139.70496899 Ry
     estimated scf accuracy    <       0.00000542 Ry

     iteration #  7     ecut=   100.00 Ry     beta=0.30
     Davidson diagonalization with overlap
     ethr =  2.26E-08,  avg # of iterations =  1.1

     total cpu time spent up to now is     4215.9 secs

     total energy              =    -139.70496669 Ry
     Harris-Foulkes estimate   =    -139.70496881 Ry
     estimated scf accuracy    <       0.00000448 Ry

     iteration #  8     ecut=   100.00 Ry     beta=0.30
     Davidson diagonalization with overlap
     ethr =  1.87E-08,  avg # of iterations =  2.0

     total cpu time spent up to now is     4242.9 secs

     End of self-consistent calculation

     Number of k-points >= 100: set verbosity='high' to print the bands.

!    total energy              =    -139.70496756 Ry
     Harris-Foulkes estimate   =    -139.70496756 Ry
     estimated scf accuracy    <       0.00000003 Ry

     The total energy is the sum of the following terms:

     one-electron contribution =     -15.08683396 Ry
     hartree contribution      =      23.75973611 Ry
     xc contribution           =     -26.65952638 Ry
     ewald contribution        =    -121.71834333 Ry

     convergence has been achieved in   8 iterations

     Forces acting on atoms (Ry/au):

     atom    1 type  3   force =    -0.00214950    0.00124102    0.00149543
     atom    2 type  2   force =     0.00735903   -0.00424874   -0.00220731
     atom    3 type  2   force =    -0.00632097    0.00364941    0.00748333
     atom    4 type  1   force =     0.00973349   -0.00561963   -0.01200447
     atom    5 type  1   force =    -0.00862205    0.00497794    0.00523302

     Total force =     0.024325     Total SCF correction =     0.000128


     entering subroutine stress ...

          total   stress  (Ry/bohr**3)                   (kbar)     P=  896.50
   0.00604131  -0.00010439  -0.00001567        888.71    -15.36     -2.31
  -0.00010439   0.00592076   0.00000905        -15.36    870.97      1.33
  -0.00001567   0.00000905   0.00632070         -2.31      1.33    929.81


     number of scf cycles    =  10
     number of bfgs steps    =   9

     enthalpy old            =    -138.4706597949 Ry
     enthalpy new            =    -138.4764018675 Ry

     CASE: enthalpy_new < enthalpy_old

     new trust radius        =       0.0204695122 bohr
     new conv_thr            =       0.0000001200 Ry

     new unit-cell volume =    201.24127 a.u.^3 (    29.82088 Ang^3 )

CELL_PARAMETERS (alat=  5.86000000)
   1.021724923   0.143344555   0.071544520
  -0.386722436   0.956512016  -0.071544520
   0.187188322  -0.108073228   0.987381440

ATOMIC_POSITIONS (crystal)
Ca      -0.000108237   0.000108237   0.005306780
O        0.309683017   0.690316983   0.316480994
O        0.689202937   0.310797063   0.699725573
H        0.491639775   0.508360225   0.730765648
H        0.509582509   0.490417491   0.257721005



     Writing output data file CaOH2_ambient.save
     NEW-OLD atomic charge density approx. for the potential
     NEW k-points: (use verbosity='high' to print them)
     extrapolated charge   24.04724, renormalised to   24.00000

     total cpu time spent up to now is     4333.9 secs

     per-process dynamical memory:    17.6 Mb

     Self-consistent Calculation

     iteration #  1     ecut=   100.00 Ry     beta=0.30
     Davidson diagonalization with overlap
     ethr =  1.00E-06,  avg # of iterations =  4.0

     total cpu time spent up to now is     4381.1 secs

     total energy              =    -139.70808663 Ry
     Harris-Foulkes estimate   =    -139.68268206 Ry
     estimated scf accuracy    <       0.00022010 Ry

     iteration #  2     ecut=   100.00 Ry     beta=0.30
     Davidson diagonalization with overlap
     ethr =  9.17E-07,  avg # of iterations =  3.0

     total cpu time spent up to now is     4414.0 secs

     total energy              =    -139.70819370 Ry
     Harris-Foulkes estimate   =    -139.70821039 Ry
     estimated scf accuracy    <       0.00012436 Ry

     iteration #  3     ecut=   100.00 Ry     beta=0.30
     Davidson diagonalization with overlap
     ethr =  5.18E-07,  avg # of iterations =  1.0

     total cpu time spent up to now is     4434.8 secs

     total energy              =    -139.70814352 Ry
     Harris-Foulkes estimate   =    -139.70819478 Ry
     estimated scf accuracy    <       0.00008410 Ry

     iteration #  4     ecut=   100.00 Ry     beta=0.30
     Davidson diagonalization with overlap
     ethr =  3.50E-07,  avg # of iterations =  2.0

     total cpu time spent up to now is     4462.8 secs

     total energy              =    -139.70816277 Ry
     Harris-Foulkes estimate   =    -139.70816622 Ry
     estimated scf accuracy    <       0.00001136 Ry

     iteration #  5     ecut=   100.00 Ry     beta=0.30
     Davidson diagonalization with overlap
     ethr =  4.74E-08,  avg # of iterations =  1.9

     total cpu time spent up to now is     4485.0 secs

     total energy              =    -139.70816175 Ry
     Harris-Foulkes estimate   =    -139.70816344 Ry
     estimated scf accuracy    <       0.00000296 Ry

     iteration #  6     ecut=   100.00 Ry     beta=0.30
     Davidson diagonalization with overlap
     ethr =  1.23E-08,  avg # of iterations =  2.0

     total cpu time spent up to now is     4513.4 secs

     total energy              =    -139.70816282 Ry
     Harris-Foulkes estimate   =    -139.70816285 Ry
     estimated scf accuracy    <       0.00000055 Ry

     iteration #  7     ecut=   100.00 Ry     beta=0.30
     Davidson diagonalization with overlap
     ethr =  2.31E-09,  avg # of iterations =  1.0

     total cpu time spent up to now is     4534.4 secs

     total energy              =    -139.70816260 Ry
     Harris-Foulkes estimate   =    -139.70816283 Ry
     estimated scf accuracy    <       0.00000046 Ry

     iteration #  8     ecut=   100.00 Ry     beta=0.30
     Davidson diagonalization with overlap
     ethr =  1.93E-09,  avg # of iterations =  2.0

     total cpu time spent up to now is     4561.5 secs

     End of self-consistent calculation

     Number of k-points >= 100: set verbosity='high' to print the bands.

!    total energy              =    -139.70816269 Ry
     Harris-Foulkes estimate   =    -139.70816269 Ry
     estimated scf accuracy    <          3.0E-09 Ry

     The total energy is the sum of the following terms:

     one-electron contribution =     -15.29602929 Ry
     hartree contribution      =      23.82545394 Ry
     xc contribution           =     -26.66273113 Ry
     ewald contribution        =    -121.57485621 Ry

     convergence has been achieved in   8 iterations

     Forces acting on atoms (Ry/au):

     atom    1 type  3   force =    -0.00044607    0.00025754    0.00195020
     atom    2 type  2   force =    -0.00311369    0.00179769   -0.00210841
     atom    3 type  2   force =     0.00140959   -0.00081383    0.00784114
     atom    4 type  1   force =     0.00260208   -0.00150231   -0.01342506
     atom    5 type  1   force =    -0.00045191    0.00026091    0.00574213

     Total force =     0.017552     Total SCF correction =     0.000137


     entering subroutine stress ...

          total   stress  (Ry/bohr**3)                   (kbar)     P=  898.13
   0.00608467   0.00001406   0.00000850        895.09      2.07      1.25
   0.00001406   0.00610091  -0.00000491          2.07    897.47     -0.72
   0.00000850  -0.00000491   0.00613050          1.25     -0.72    901.83


     number of scf cycles    =  11
     number of bfgs steps    =  10

     enthalpy old            =    -138.4764018675 Ry
     enthalpy new            =    -138.4769531817 Ry

     CASE: enthalpy_new < enthalpy_old

     new trust radius        =       0.0156395947 bohr
     new conv_thr            =       0.0000000551 Ry

     new unit-cell volume =    201.23436 a.u.^3 (    29.81985 Ang^3 )

CELL_PARAMETERS (alat=  5.86000000)
   1.019565255   0.143230212   0.071996746
  -0.385741626   0.954584517  -0.071996746
   0.189764328  -0.109560486   0.991744102

ATOMIC_POSITIONS (crystal)
Ca      -0.000223713   0.000223713   0.005652446
O        0.309530743   0.690469257   0.314671978
O        0.689222512   0.310777488   0.702356412
H        0.491769917   0.508230083   0.729529258
H        0.509700541   0.490299459   0.257789906



     Writing output data file CaOH2_ambient.save
     NEW-OLD atomic charge density approx. for the potential
     NEW k-points: (use verbosity='high' to print them)
     extrapolated charge   23.99924, renormalised to   24.00000

     total cpu time spent up to now is     4652.6 secs

     per-process dynamical memory:    17.6 Mb

     Self-consistent Calculation

     iteration #  1     ecut=   100.00 Ry     beta=0.30
     Davidson diagonalization with overlap
     ethr =  1.00E-06,  avg # of iterations =  4.1

     total cpu time spent up to now is     4699.6 secs

     total energy              =    -139.70834418 Ry
     Harris-Foulkes estimate   =    -139.70877302 Ry
     estimated scf accuracy    <       0.00010949 Ry

     iteration #  2     ecut=   100.00 Ry     beta=0.30
     Davidson diagonalization with overlap
     ethr =  4.56E-07,  avg # of iterations =  1.0

     total cpu time spent up to now is     4721.0 secs

     total energy              =    -139.70830942 Ry
     Harris-Foulkes estimate   =    -139.70834561 Ry
     estimated scf accuracy    <       0.00006550 Ry

     iteration #  3     ecut=   100.00 Ry     beta=0.30
     Davidson diagonalization with overlap
     ethr =  2.73E-07,  avg # of iterations =  2.0

     total cpu time spent up to now is     4747.4 secs

     total energy              =    -139.70832062 Ry
     Harris-Foulkes estimate   =    -139.70832072 Ry
     estimated scf accuracy    <       0.00000138 Ry

     iteration #  4     ecut=   100.00 Ry     beta=0.30
     Davidson diagonalization with overlap
     ethr =  5.74E-09,  avg # of iterations =  2.0

     total cpu time spent up to now is     4770.6 secs

     total energy              =    -139.70832046 Ry
     Harris-Foulkes estimate   =    -139.70832073 Ry
     estimated scf accuracy    <       0.00000088 Ry

     iteration #  5     ecut=   100.00 Ry     beta=0.30
     Davidson diagonalization with overlap
     ethr =  3.66E-09,  avg # of iterations =  2.0

     total cpu time spent up to now is     4796.1 secs

[...]

     total cpu time spent up to now is    15587.2 secs

     total energy              =    -139.73324961 Ry
     Harris-Foulkes estimate   =    -139.73324965 Ry
     estimated scf accuracy    <       0.00000037 Ry

     iteration #  3     ecut=   100.00 Ry     beta=0.30
     Davidson diagonalization with overlap
     ethr =  1.54E-09,  avg # of iterations =  1.0

     total cpu time spent up to now is    15607.7 secs

     total energy              =    -139.73324957 Ry
     Harris-Foulkes estimate   =    -139.73324962 Ry
     estimated scf accuracy    <       0.00000016 Ry

     iteration #  4     ecut=   100.00 Ry     beta=0.30
     Davidson diagonalization with overlap
     ethr =  6.75E-10,  avg # of iterations =  2.0

     total cpu time spent up to now is    15632.6 secs

     End of self-consistent calculation

     Number of k-points >= 100: set verbosity='high' to print the bands.

!    total energy              =    -139.73324959 Ry
     Harris-Foulkes estimate   =    -139.73324959 Ry
     estimated scf accuracy    <          4.7E-09 Ry

     The total energy is the sum of the following terms:

     one-electron contribution =     -14.52530414 Ry
     hartree contribution      =      23.58956190 Ry
     xc contribution           =     -26.67135063 Ry
     ewald contribution        =    -122.12615672 Ry

     convergence has been achieved in   4 iterations

     Forces acting on atoms (Ry/au):

     atom    1 type  3   force =     0.00040758   -0.00023531   -0.00007195
     atom    2 type  2   force =     0.00005580   -0.00003221   -0.00003877
     atom    3 type  2   force =    -0.00029895    0.00017260    0.00016052
     atom    4 type  1   force =    -0.00019765    0.00011411   -0.00006490
     atom    5 type  1   force =     0.00003323   -0.00001918    0.00001510

     Total force =     0.000660     Total SCF correction =     0.000109
     SCF correction compared to forces is large: reduce conv_thr to get better values


     entering subroutine stress ...

          total   stress  (Ry/bohr**3)                   (kbar)     P=  900.34
   0.00612404  -0.00000601   0.00000686        900.88     -0.88      1.01
  -0.00000601   0.00611710  -0.00000396         -0.88    899.86     -0.58
   0.00000686  -0.00000396   0.00611998          1.01     -0.58    900.28


     number of scf cycles    =  47
     number of bfgs steps    =  43

     enthalpy old            =    -138.5127727748 Ry
     enthalpy new            =    -138.5127752725 Ry

     CASE: enthalpy_new < enthalpy_old

     new trust radius        =       0.0013828640 bohr
     new conv_thr            =       0.0000000100 Ry

     new unit-cell volume =    199.48885 a.u.^3 (    29.56120 Ang^3 )

CELL_PARAMETERS (alat=  5.86000000)
   0.993810713   0.164378238   0.070900409
  -0.354549626   0.942854443  -0.070900409
   0.194375268  -0.112222613   1.016470982

ATOMIC_POSITIONS (crystal)
Ca      -0.001607952   0.001607952   0.089113155
O        0.312952819   0.687047181   0.415418456
O        0.682549112   0.317450888   0.773653167
H        0.518762743   0.481237257   0.609813920
H        0.487343278   0.512656722   0.122001302



     Writing output data file CaOH2_ambient.save
     NEW-OLD atomic charge density approx. for the potential
     NEW k-points: (use verbosity='high' to print them)
     extrapolated charge   24.00025, renormalised to   24.00000

     total cpu time spent up to now is    15723.4 secs

     per-process dynamical memory:    17.6 Mb

     Self-consistent Calculation

     iteration #  1     ecut=   100.00 Ry     beta=0.30
     Davidson diagonalization with overlap
     ethr =  1.00E-06,  avg # of iterations =  2.0

     Threshold (ethr) on eigenvalues was too large:
     Diagonalizing with lowered threshold

     Davidson diagonalization with overlap
     ethr =  1.09E-09,  avg # of iterations =  3.0

     total cpu time spent up to now is    15783.2 secs

     total energy              =    -139.73326406 Ry
     Harris-Foulkes estimate   =    -139.73313491 Ry
     estimated scf accuracy    <       0.00000025 Ry

     iteration #  2     ecut=   100.00 Ry     beta=0.30
     Davidson diagonalization with overlap
     ethr =  1.04E-09,  avg # of iterations =  1.0

     total cpu time spent up to now is    15803.7 secs

     total energy              =    -139.73326402 Ry
     Harris-Foulkes estimate   =    -139.73326407 Ry
     estimated scf accuracy    <       0.00000014 Ry

     iteration #  3     ecut=   100.00 Ry     beta=0.30
     Davidson diagonalization with overlap
     ethr =  5.87E-10,  avg # of iterations =  2.0

     total cpu time spent up to now is    15829.2 secs

     total energy              =    -139.73326403 Ry
     Harris-Foulkes estimate   =    -139.73326403 Ry
     estimated scf accuracy    <       0.00000001 Ry

     iteration #  4     ecut=   100.00 Ry     beta=0.30
     Davidson diagonalization with overlap
     ethr =  4.58E-11,  avg # of iterations =  2.0

     total cpu time spent up to now is    15854.2 secs

     End of self-consistent calculation

     Number of k-points >= 100: set verbosity='high' to print the bands.

!    total energy              =    -139.73326403 Ry
     Harris-Foulkes estimate   =    -139.73326403 Ry
     estimated scf accuracy    <          1.5E-09 Ry

     The total energy is the sum of the following terms:

     one-electron contribution =     -14.52484951 Ry
     hartree contribution      =      23.58935347 Ry
     xc contribution           =     -26.67124653 Ry
     ewald contribution        =    -122.12652145 Ry

     convergence has been achieved in   4 iterations

     Forces acting on atoms (Ry/au):

     atom    1 type  3   force =     0.00020260   -0.00011697   -0.00009483
     atom    2 type  2   force =    -0.00002528    0.00001460    0.00000718
     atom    3 type  2   force =     0.00006772   -0.00003910    0.00010865
     atom    4 type  1   force =    -0.00017952    0.00010364   -0.00004766
     atom    5 type  1   force =    -0.00006553    0.00003783    0.00002666

     Total force =     0.000366     Total SCF correction =     0.000052
     SCF correction compared to forces is large: reduce conv_thr to get better values


     entering subroutine stress ...

          total   stress  (Ry/bohr**3)                   (kbar)     P=  900.19
   0.00612088  -0.00000272   0.00000203        900.41     -0.40      0.30
  -0.00000272   0.00611774  -0.00000117         -0.40    899.95     -0.17
   0.00000203  -0.00000117   0.00611941          0.30     -0.17    900.20


     bfgs converged in  48 scf cycles and  44 bfgs steps
     (criteria: energy < 0.10E-03, force < 0.10E-02, cell < 0.50E+00)

     End of BFGS Geometry Optimization

     Final enthalpy =    -138.5127759448 Ry
Begin final coordinates
     new unit-cell volume =    199.48885 a.u.^3 (    29.56120 Ang^3 )

CELL_PARAMETERS (alat=  5.86000000)
   0.993810713   0.164378238   0.070900409
  -0.354549626   0.942854443  -0.070900409
   0.194375268  -0.112222613   1.016470982

ATOMIC_POSITIONS (crystal)
Ca      -0.001607952   0.001607952   0.089113155
O        0.312952819   0.687047181   0.415418456
O        0.682549112   0.317450888   0.773653167
H        0.518762743   0.481237257   0.609813920
H        0.487343278   0.512656722   0.122001302
End final coordinates



     A final scf calculation at the relaxed structure.
     The G-vectors are recalculated for the final unit cell
     Results may differ from those at the preceding step.

     G-vector sticks info
     --------------------
     sticks:   dense  smooth     PW     G-vecs:    dense   smooth      PW
     Sum         867     867    349                19289    19289    4711



     bravais-lattice index     =            4
     lattice parameter (alat)  =       5.8600  a.u.
     unit-cell volume          =     199.4889 (a.u.)^3
     number of atoms/cell      =            5
     number of atomic types    =            3
     number of electrons       =        24.00
     number of Kohn-Sham states=           12
     kinetic-energy cutoff     =     100.0000  Ry
     charge density cutoff     =     320.0000  Ry
     convergence threshold     =      1.0E-08
     mixing beta               =       0.3000
     number of iterations used =           16  local-TF  mixing
     Exchange-correlation      = PBE ( 1 4 3 4 0)
     EXX-fraction              =        0.00

     celldm(1)=   5.860000  celldm(2)=   0.000000  celldm(3)=   1.332000
     celldm(4)=   0.000000  celldm(5)=   0.000000  celldm(6)=   0.000000

     crystal axes: (cart. coord. in units of alat)
               a(1) = (   0.993811   0.164378   0.070900 )  
               a(2) = (  -0.354550   0.942854  -0.070900 )  
               a(3) = (   0.194375  -0.112223   1.016471 )  

     reciprocal axes: (cart. coord. in units 2 pi/alat)
               b(1) = (  0.958723  0.349633 -0.144731 )  
               b(2) = ( -0.176570  1.005095  0.144731 )  
               b(3) = ( -0.079188  0.045719  1.003986 )  


     PseudoPot. # 1 for H  read from file:
     /home/ilia/espresso/pseudo/H.pbe-sp-mt.ncpp
     MD5 check sum: 7a641936b52ccecd26bd1ad87cca5aed
     Pseudo is Norm-conserving, Zval =  1.0
     Generated by old ld1 code (numerical format)
     Using radial grid of 1076 points,  0 beta functions with: 

     PseudoPot. # 2 for O  read from file:
     /home/ilia/espresso/pseudo/O.pbe-sp-mt.ncpp
     MD5 check sum: 8a3d23d410d2f3ebfd0a39faacc72cbb
     Pseudo is Norm-conserving, Zval =  6.0
     Generated by old ld1 code (numerical format)
     Using radial grid of 1130 points,  1 beta functions with: 
                l(1) =   1

     PseudoPot. # 3 for Ca read from file:
     /home/ilia/espresso/pseudo/Ca.pbe-sp-mt_ion2.ncpp
     MD5 check sum: 4bcd670d05521f7b178fdf0a334578ab
     Pseudo is Norm-conserving, Zval = 10.0
     Generated by old ld1 code (numerical format)
     Using radial grid of 1153 points,  1 beta functions with: 
                l(1) =   1

     atomic species   valence    mass     pseudopotential
        H              1.00     1.00700     H ( 1.00)
        O              6.00    16.00000     O ( 1.00)
        Ca            10.00    40.07800     Ca( 1.00)

      2 Sym. Ops. (no inversion) found



   Cartesian axes

     site n.     atom                  positions (alat units)
         1           Ca  tau(   1) = (   0.0151533  -0.0087488   0.0903529  )
         2           O   tau(   2) = (   0.1481706   0.6526088   0.3957374  )
         3           O   tau(   3) = (   0.7161516   0.3246848   0.8122816  )
         4           H   tau(   4) = (   0.4634622   0.4705751   0.6225187  )
         5           H   tau(   5) = (   0.3262788   0.5497780   0.1222160  )

     number of k points=   171

     Number of k-points >= 100: set verbosity='high' to print them.

     Dense  grid:    19289 G-vectors     FFT dimensions: (  36,  36,  36)

     Largest allocated arrays     est. size (Mb)     dimensions
        Kohn-Sham Wavefunctions         0.62 Mb     (   3391,   12)
        NL pseudopotentials             0.47 Mb     (   3391,    9)
        Each V/rho on FFT grid          0.71 Mb     (  46656)
        Each G-vector array             0.15 Mb     (  19289)
        G-vector shells                 0.04 Mb     (   4998)
     Largest temporary arrays     est. size (Mb)     dimensions
        Auxiliary wavefunctions         2.48 Mb     (   3391,   48)
        Each subspace H/S matrix        0.04 Mb     (  48,  48)
        Each <psi_i|beta_j> matrix      0.00 Mb     (      9,   12)
        Arrays for rho mixing          11.39 Mb     (  46656,  16)

     Initial potential from superposition of free atoms

     starting charge   21.99998, renormalised to   24.00000
     Starting wfc are   14 randomized atomic wfcs

     Writing output data file CaOH2_ambient.save

     total cpu time spent up to now is    15924.2 secs

     per-process dynamical memory:    10.9 Mb

     Self-consistent Calculation

     iteration #  1     ecut=   100.00 Ry     beta=0.30
     Davidson diagonalization with overlap
     ethr =  1.00E-06,  avg # of iterations =  5.8

     total cpu time spent up to now is    15979.3 secs

     total energy              =    -139.89360607 Ry
     Harris-Foulkes estimate   =    -139.97786152 Ry
     estimated scf accuracy    <       0.45469073 Ry

     iteration #  2     ecut=   100.00 Ry     beta=0.30
     Davidson diagonalization with overlap
     ethr =  1.89E-03,  avg # of iterations =  1.0

     total cpu time spent up to now is    15995.2 secs

     total energy              =    -139.70079648 Ry
     Harris-Foulkes estimate   =    -139.89735640 Ry
     estimated scf accuracy    <       0.29109059 Ry

     iteration #  3     ecut=   100.00 Ry     beta=0.30
     Davidson diagonalization with overlap
     ethr =  1.21E-03,  avg # of iterations =  2.0

     total cpu time spent up to now is    16017.7 secs

     total energy              =    -139.75354683 Ry
     Harris-Foulkes estimate   =    -139.75610746 Ry
     estimated scf accuracy    <       0.01375822 Ry

     iteration #  4     ecut=   100.00 Ry     beta=0.30
     Davidson diagonalization with overlap
     ethr =  5.73E-05,  avg # of iterations =  1.6

     total cpu time spent up to now is    16034.3 secs

     total energy              =    -139.75301833 Ry
     Harris-Foulkes estimate   =    -139.75423165 Ry
     estimated scf accuracy    <       0.00301218 Ry

     iteration #  5     ecut=   100.00 Ry     beta=0.30
     Davidson diagonalization with overlap
     ethr =  1.26E-05,  avg # of iterations =  2.0

     total cpu time spent up to now is    16054.1 secs

     total energy              =    -139.75341927 Ry
     Harris-Foulkes estimate   =    -139.75347342 Ry
     estimated scf accuracy    <       0.00051880 Ry

     iteration #  6     ecut=   100.00 Ry     beta=0.30
     Davidson diagonalization with overlap
     ethr =  2.16E-06,  avg # of iterations =  1.0

     total cpu time spent up to now is    16070.1 secs

     total energy              =    -139.75326082 Ry
     Harris-Foulkes estimate   =    -139.75342763 Ry
     estimated scf accuracy    <       0.00034546 Ry

     iteration #  7     ecut=   100.00 Ry     beta=0.30
     Davidson diagonalization with overlap
     ethr =  1.44E-06,  avg # of iterations =  2.0

     total cpu time spent up to now is    16091.6 secs

     total energy              =    -139.75337863 Ry
     Harris-Foulkes estimate   =    -139.75338412 Ry
     estimated scf accuracy    <       0.00006203 Ry

     iteration #  8     ecut=   100.00 Ry     beta=0.30
     Davidson diagonalization with overlap
     ethr =  2.58E-07,  avg # of iterations =  1.0

     total cpu time spent up to now is    16107.5 secs

     total energy              =    -139.75335833 Ry
     Harris-Foulkes estimate   =    -139.75337965 Ry
     estimated scf accuracy    <       0.00004812 Ry

     iteration #  9     ecut=   100.00 Ry     beta=0.30
     Davidson diagonalization with overlap
     ethr =  2.01E-07,  avg # of iterations =  2.0

     total cpu time spent up to now is    16127.9 secs

     total energy              =    -139.75336567 Ry
     Harris-Foulkes estimate   =    -139.75336601 Ry
     estimated scf accuracy    <       0.00000149 Ry

     iteration # 10     ecut=   100.00 Ry     beta=0.30
     Davidson diagonalization with overlap
     ethr =  6.23E-09,  avg # of iterations =  2.0

     total cpu time spent up to now is    16147.7 secs

     total energy              =    -139.75336568 Ry
     Harris-Foulkes estimate   =    -139.75336586 Ry
     estimated scf accuracy    <       0.00000057 Ry

     iteration # 11     ecut=   100.00 Ry     beta=0.30
     Davidson diagonalization with overlap
     ethr =  2.37E-09,  avg # of iterations =  2.0

     total cpu time spent up to now is    16167.3 secs

     total energy              =    -139.75336576 Ry
     Harris-Foulkes estimate   =    -139.75336576 Ry
     estimated scf accuracy    <       0.00000003 Ry

     iteration # 12     ecut=   100.00 Ry     beta=0.30
     Davidson diagonalization with overlap
     ethr =  1.19E-10,  avg # of iterations =  2.0

     total cpu time spent up to now is    16189.4 secs

     total energy              =    -139.75336575 Ry
     Harris-Foulkes estimate   =    -139.75336576 Ry
     estimated scf accuracy    <       0.00000002 Ry

     iteration # 13     ecut=   100.00 Ry     beta=0.30
     Davidson diagonalization with overlap
     ethr =  1.04E-10,  avg # of iterations =  2.0

     total cpu time spent up to now is    16209.1 secs

     End of self-consistent calculation

     Number of k-points >= 100: set verbosity='high' to print the bands.

!    total energy              =    -139.75336576 Ry
     Harris-Foulkes estimate   =    -139.75336576 Ry
     estimated scf accuracy    <          1.0E-09 Ry

     The total energy is the sum of the following terms:

     one-electron contribution =     -14.55932306 Ry
     hartree contribution      =      23.60553008 Ry
     xc contribution           =     -26.67305137 Ry
     ewald contribution        =    -122.12652140 Ry

     convergence has been achieved in  13 iterations

     Forces acting on atoms (Ry/au):

     atom    1 type  3   force =     0.00007134   -0.00004119   -0.00007770
     atom    2 type  2   force =    -0.00004196    0.00002423    0.00054226
     atom    3 type  2   force =     0.00021443   -0.00012380   -0.00045771
     atom    4 type  1   force =    -0.00017306    0.00009992   -0.00000415
     atom    5 type  1   force =    -0.00007075    0.00004085   -0.00000269

     Total force =     0.000792     Total SCF correction =     0.000034


     entering subroutine stress ...

          total   stress  (Ry/bohr**3)                   (kbar)     P=  979.22
   0.00657281   0.00057288   0.00005231        966.89     84.27      7.70
   0.00057288   0.00723431  -0.00003020         84.27   1064.20     -4.44
   0.00005231  -0.00003020   0.00616260          7.70     -4.44    906.55


     Writing output data file CaOH2_ambient.save

     init_run     :     61.72s CPU     64.22s WALL (       2 calls)
     electrons    :  11610.05s CPU  11839.85s WALL (      49 calls)
     update_pot   :   1870.75s CPU   1893.05s WALL (      47 calls)
     forces       :    680.26s CPU    683.71s WALL (      49 calls)
     stress       :   1719.60s CPU   1726.28s WALL (      49 calls)

     Called by init_run:
     wfcinit      :     24.77s CPU     26.92s WALL (       2 calls)
     potinit      :     15.49s CPU     15.56s WALL (       2 calls)

     Called by electrons:
     c_bands      :  10036.24s CPU  10225.57s WALL (     419 calls)
     sum_band     :   1501.06s CPU   1538.27s WALL (     419 calls)
     v_of_rho     :     40.93s CPU     41.95s WALL (     460 calls)
     mix_rho      :     34.51s CPU     36.08s WALL (     419 calls)

     Called by c_bands:
     init_us_2    :    423.25s CPU    460.91s WALL (  160398 calls)
     cegterg      :   9801.15s CPU   9852.84s WALL (   71649 calls)

     Called by *egterg:
     h_psi        :   7150.79s CPU   7179.71s WALL (  231032 calls)
     g_psi        :     89.81s CPU     90.88s WALL (  159041 calls)
     cdiaghg      :    109.70s CPU    111.36s WALL (  221285 calls)

     Called by h_psi:
     add_vuspsi   :    243.99s CPU    245.38s WALL (  231032 calls)

     General routines
     calbec       :    268.78s CPU    270.05s WALL (  247790 calls)
     fft          :     10.16s CPU     10.35s WALL (    5466 calls)
     ffts         :     13.87s CPU     13.98s WALL (    7608 calls)
     fftw         :   6877.16s CPU   6901.07s WALL ( 5549832 calls)
     davcio       :     55.53s CPU    185.33s WALL (  232047 calls)


     PWSCF        :     4h26m CPU        4h30m WALL


   This run was terminated on:   5:24: 4  24Apr2014            

=------------------------------------------------------------------------------=
   JOB DONE.
=------------------------------------------------------------------------------=
