
     Program PWSCF v.5.0.2 (svn rev. 9392) starts on 24Apr2014 at  5:24: 4 

     This program is part of the open-source Quantum ESPRESSO suite
     for quantum simulation of materials; please cite
         "P. Giannozzi et al., J. Phys.:Condens. Matter 21 395502 (2009);
          URL http://www.quantum-espresso.org", 
     in publications or presentations arising from this work. More details at
     http://www.quantum-espresso.org/quote.php

     Serial version

     Current dimensions of program PWSCF are:
     Max number of different atomic species (ntypx) = 10
     Max number of k-points (npk) =  40000
     Max angular momentum in pseudopotentials (lmaxx) =  3
     Waiting for input...
     Reading input from standard input

     G-vector sticks info
     --------------------
     sticks:   dense  smooth     PW     G-vecs:    dense   smooth      PW
     Sum         757     757    283                22473    22473    5157



     bravais-lattice index     =            4
     lattice parameter (alat)  =       5.8600  a.u.
     unit-cell volume          =     232.1281 (a.u.)^3
     number of atoms/cell      =            5
     number of atomic types    =            3
     number of electrons       =        24.00
     number of Kohn-Sham states=           12
     kinetic-energy cutoff     =     100.0000  Ry
     charge density cutoff     =     320.0000  Ry
     convergence threshold     =      1.0E-06
     mixing beta               =       0.3000
     number of iterations used =           16  local-TF  mixing
     Exchange-correlation      = PBE ( 1 4 3 4 0)
     EXX-fraction              =        0.00
     nstep                     =           50


     celldm(1)=   5.860000  celldm(2)=   0.000000  celldm(3)=   1.332000
     celldm(4)=   0.000000  celldm(5)=   0.000000  celldm(6)=   0.000000

     crystal axes: (cart. coord. in units of alat)
               a(1) = (   1.000000   0.000000   0.000000 )  
               a(2) = (  -0.500000   0.866025   0.000000 )  
               a(3) = (   0.000000   0.000000   1.332000 )  

     reciprocal axes: (cart. coord. in units 2 pi/alat)
               b(1) = (  1.000000  0.577350 -0.000000 )  
               b(2) = (  0.000000  1.154701  0.000000 )  
               b(3) = (  0.000000 -0.000000  0.750751 )  


     PseudoPot. # 1 for H  read from file:
     /home/ilia/espresso/pseudo/H.pbe-sp-mt.ncpp
     MD5 check sum: 7a641936b52ccecd26bd1ad87cca5aed
     Pseudo is Norm-conserving, Zval =  1.0
     Generated by old ld1 code (numerical format)
     Using radial grid of 1076 points,  0 beta functions with: 

     PseudoPot. # 2 for O  read from file:
     /home/ilia/espresso/pseudo/O.pbe-sp-mt.ncpp
     MD5 check sum: 8a3d23d410d2f3ebfd0a39faacc72cbb
     Pseudo is Norm-conserving, Zval =  6.0
     Generated by old ld1 code (numerical format)
     Using radial grid of 1130 points,  1 beta functions with: 
                l(1) =   1

     PseudoPot. # 3 for Ca read from file:
     /home/ilia/espresso/pseudo/Ca.pbe-sp-mt_ion2.ncpp
     MD5 check sum: 4bcd670d05521f7b178fdf0a334578ab
     Pseudo is Norm-conserving, Zval = 10.0
     Generated by old ld1 code (numerical format)
     Using radial grid of 1153 points,  1 beta functions with: 
                l(1) =   1

     atomic species   valence    mass     pseudopotential
        H              1.00     1.00700     H ( 1.00)
        O              6.00    16.00000     O ( 1.00)
        Ca            10.00    40.07800     Ca( 1.00)

      2 Sym. Ops. (no inversion) found



   Cartesian axes

     site n.     atom                  positions (alat units)
         1           Ca  tau(   1) = (   0.0000000   0.0000000   0.0000000  )
         2           O   tau(   2) = (   0.0000000   0.5773503   0.6287040  )
         3           O   tau(   3) = (   0.5000000   0.2886751   0.7166160  )
         4           H   tau(   4) = (   0.2500000   0.4330127   0.9430560  )
         5           H   tau(   5) = (   0.2500000   0.4330127   0.3889440  )

     number of k points=   171

     Number of k-points >= 100: set verbosity='high' to print them.

     Dense  grid:    22473 G-vectors     FFT dimensions: (  36,  36,  45)

     Largest allocated arrays     est. size (Mb)     dimensions
        Kohn-Sham Wavefunctions         0.72 Mb     (   3953,   12)
        NL pseudopotentials             0.54 Mb     (   3953,    9)
        Each V/rho on FFT grid          0.89 Mb     (  58320)
        Each G-vector array             0.17 Mb     (  22473)
        G-vector shells                 0.17 Mb     (  22473)
     Largest temporary arrays     est. size (Mb)     dimensions
        Auxiliary wavefunctions         2.90 Mb     (   3953,   48)
        Each subspace H/S matrix        0.04 Mb     (  48,  48)
        Each <psi_i|beta_j> matrix      0.00 Mb     (      9,   12)
        Arrays for rho mixing          14.24 Mb     (  58320,  16)

     Initial potential from superposition of free atoms

     starting charge   21.99998, renormalised to   24.00000
     Starting wfc are   14 randomized atomic wfcs

     total cpu time spent up to now is       45.1 secs

     per-process dynamical memory:    14.1 Mb

     Self-consistent Calculation

     iteration #  1     ecut=   100.00 Ry     beta=0.30
     Davidson diagonalization with overlap
     ethr =  1.00E-02,  avg # of iterations =  4.1

     total cpu time spent up to now is       81.8 secs

     total energy              =    -139.04604779 Ry
     Harris-Foulkes estimate   =    -139.19520853 Ry
     estimated scf accuracy    <       0.76764974 Ry

     iteration #  2     ecut=   100.00 Ry     beta=0.30
     Davidson diagonalization with overlap
     ethr =  3.20E-03,  avg # of iterations =  1.5

     total cpu time spent up to now is      103.1 secs

     total energy              =    -138.81238727 Ry
     Harris-Foulkes estimate   =    -139.08442427 Ry
     estimated scf accuracy    <       0.45626081 Ry

     iteration #  3     ecut=   100.00 Ry     beta=0.30
     Davidson diagonalization with overlap
     ethr =  1.90E-03,  avg # of iterations =  3.4

     total cpu time spent up to now is      135.6 secs

     total energy              =    -138.97739731 Ry
     Harris-Foulkes estimate   =    -139.01456566 Ry
     estimated scf accuracy    <       0.28262335 Ry

     iteration #  4     ecut=   100.00 Ry     beta=0.30
     Davidson diagonalization with overlap
     ethr =  1.18E-03,  avg # of iterations =  1.0

     total cpu time spent up to now is      156.3 secs

     total energy              =    -138.91867837 Ry
     Harris-Foulkes estimate   =    -138.98181762 Ry
     estimated scf accuracy    <       0.17316922 Ry

     iteration #  5     ecut=   100.00 Ry     beta=0.30
     Davidson diagonalization with overlap
     ethr =  7.22E-04,  avg # of iterations =  2.8

     total cpu time spent up to now is      182.5 secs

     total energy              =    -138.94915033 Ry
     Harris-Foulkes estimate   =    -138.95012465 Ry
     estimated scf accuracy    <       0.00696325 Ry

     iteration #  6     ecut=   100.00 Ry     beta=0.30
     Davidson diagonalization with overlap
     ethr =  2.90E-05,  avg # of iterations =  2.8

     total cpu time spent up to now is      205.7 secs

     total energy              =    -138.95064046 Ry
     Harris-Foulkes estimate   =    -138.95148751 Ry
     estimated scf accuracy    <       0.00313543 Ry

     iteration #  7     ecut=   100.00 Ry     beta=0.30
     Davidson diagonalization with overlap
     ethr =  1.31E-05,  avg # of iterations =  3.7

     total cpu time spent up to now is      231.8 secs

     total energy              =    -138.95194852 Ry
     Harris-Foulkes estimate   =    -138.95186006 Ry
     estimated scf accuracy    <       0.00288823 Ry

     iteration #  8     ecut=   100.00 Ry     beta=0.30
     Davidson diagonalization with overlap
     ethr =  1.20E-05,  avg # of iterations =  1.0

     total cpu time spent up to now is      252.5 secs

     total energy              =    -138.95101230 Ry
     Harris-Foulkes estimate   =    -138.95197478 Ry
     estimated scf accuracy    <       0.00334134 Ry

     iteration #  9     ecut=   100.00 Ry     beta=0.30
     Davidson diagonalization with overlap
     ethr =  1.20E-05,  avg # of iterations =  3.0

     total cpu time spent up to now is      276.4 secs

     total energy              =    -138.95149264 Ry
     Harris-Foulkes estimate   =    -138.95151907 Ry
     estimated scf accuracy    <       0.00023478 Ry

     iteration # 10     ecut=   100.00 Ry     beta=0.30
     Davidson diagonalization with overlap
     ethr =  9.78E-07,  avg # of iterations =  2.8

     total cpu time spent up to now is      300.3 secs

     total energy              =    -138.95151954 Ry
     Harris-Foulkes estimate   =    -138.95152716 Ry
     estimated scf accuracy    <       0.00018343 Ry

     iteration # 11     ecut=   100.00 Ry     beta=0.30
     Davidson diagonalization with overlap
     ethr =  7.64E-07,  avg # of iterations =  1.0

     total cpu time spent up to now is      321.0 secs

     total energy              =    -138.95147085 Ry
     Harris-Foulkes estimate   =    -138.95152067 Ry
     estimated scf accuracy    <       0.00016055 Ry

     iteration # 12     ecut=   100.00 Ry     beta=0.30
     Davidson diagonalization with overlap
     ethr =  6.69E-07,  avg # of iterations =  3.8

     total cpu time spent up to now is      346.5 secs

     total energy              =    -138.95158602 Ry
     Harris-Foulkes estimate   =    -138.95158884 Ry
     estimated scf accuracy    <       0.00008812 Ry

     iteration # 13     ecut=   100.00 Ry     beta=0.30
     Davidson diagonalization with overlap
     ethr =  3.67E-07,  avg # of iterations =  1.0

     total cpu time spent up to now is      367.2 secs

     total energy              =    -138.95157252 Ry
     Harris-Foulkes estimate   =    -138.95158659 Ry
     estimated scf accuracy    <       0.00008138 Ry

     iteration # 14     ecut=   100.00 Ry     beta=0.30
     Davidson diagonalization with overlap
     ethr =  3.39E-07,  avg # of iterations =  2.2

     total cpu time spent up to now is      389.3 secs

     total energy              =    -138.95157721 Ry
     Harris-Foulkes estimate   =    -138.95157782 Ry
     estimated scf accuracy    <       0.00000643 Ry

     iteration # 15     ecut=   100.00 Ry     beta=0.30
     Davidson diagonalization with overlap
     ethr =  2.68E-08,  avg # of iterations =  3.5

     total cpu time spent up to now is      413.4 secs

     total energy              =    -138.95168819 Ry
     Harris-Foulkes estimate   =    -138.95168799 Ry
     estimated scf accuracy    <       0.00001236 Ry

     iteration # 16     ecut=   100.00 Ry     beta=0.30
     Davidson diagonalization with overlap
     ethr =  2.68E-08,  avg # of iterations =  1.0

     total cpu time spent up to now is      434.1 secs

     total energy              =    -138.95168662 Ry
     Harris-Foulkes estimate   =    -138.95168822 Ry
     estimated scf accuracy    <       0.00001251 Ry

     iteration # 17     ecut=   100.00 Ry     beta=0.30
     Davidson diagonalization with overlap
     ethr =  2.68E-08,  avg # of iterations =  3.3

     total cpu time spent up to now is      460.0 secs

     total energy              =    -138.95168789 Ry
     Harris-Foulkes estimate   =    -138.95168824 Ry
     estimated scf accuracy    <       0.00000704 Ry

     iteration # 18     ecut=   100.00 Ry     beta=0.30
     Davidson diagonalization with overlap
     ethr =  2.68E-08,  avg # of iterations =  1.0

     total cpu time spent up to now is      482.6 secs

     total energy              =    -138.95168753 Ry
     Harris-Foulkes estimate   =    -138.95168795 Ry
     estimated scf accuracy    <       0.00000604 Ry

     iteration # 19     ecut=   100.00 Ry     beta=0.30
     Davidson diagonalization with overlap
     ethr =  2.52E-08,  avg # of iterations =  2.4

     total cpu time spent up to now is      504.9 secs

     total energy              =    -138.95168795 Ry
     Harris-Foulkes estimate   =    -138.95168817 Ry
     estimated scf accuracy    <       0.00000803 Ry

     iteration # 20     ecut=   100.00 Ry     beta=0.30
     Davidson diagonalization with overlap
     ethr =  2.52E-08,  avg # of iterations =  1.0

     total cpu time spent up to now is      525.6 secs

     total energy              =    -138.95168788 Ry
     Harris-Foulkes estimate   =    -138.95168798 Ry
     estimated scf accuracy    <       0.00000744 Ry

     iteration # 21     ecut=   100.00 Ry     beta=0.30
     Davidson diagonalization with overlap
     ethr =  2.52E-08,  avg # of iterations =  1.0

     total cpu time spent up to now is      546.4 secs

     total energy              =    -138.95168778 Ry
     Harris-Foulkes estimate   =    -138.95168789 Ry
     estimated scf accuracy    <       0.00000709 Ry

     iteration # 22     ecut=   100.00 Ry     beta=0.30
     Davidson diagonalization with overlap
     ethr =  2.52E-08,  avg # of iterations =  1.0

     total cpu time spent up to now is      567.5 secs

     total energy              =    -138.95168770 Ry
     Harris-Foulkes estimate   =    -138.95168779 Ry
     estimated scf accuracy    <       0.00000673 Ry

     iteration # 23     ecut=   100.00 Ry     beta=0.30
     Davidson diagonalization with overlap
     ethr =  2.52E-08,  avg # of iterations =  1.0

     total cpu time spent up to now is      588.5 secs

     total energy              =    -138.95168783 Ry
     Harris-Foulkes estimate   =    -138.95168770 Ry
     estimated scf accuracy    <       0.00000644 Ry

     iteration # 24     ecut=   100.00 Ry     beta=0.30
     Davidson diagonalization with overlap
     ethr =  2.52E-08,  avg # of iterations =  1.0

     total cpu time spent up to now is      609.2 secs

     total energy              =    -138.95168768 Ry
     Harris-Foulkes estimate   =    -138.95168784 Ry
     estimated scf accuracy    <       0.00000676 Ry

     iteration # 25     ecut=   100.00 Ry     beta=0.30
     Davidson diagonalization with overlap
     ethr =  2.52E-08,  avg # of iterations =  1.0

     total cpu time spent up to now is      629.9 secs

     total energy              =    -138.95168740 Ry
     Harris-Foulkes estimate   =    -138.95168768 Ry
     estimated scf accuracy    <       0.00000628 Ry

     iteration # 26     ecut=   100.00 Ry     beta=0.30
     Davidson diagonalization with overlap
     ethr =  2.52E-08,  avg # of iterations =  1.0

     total cpu time spent up to now is      650.6 secs

     total energy              =    -138.95168720 Ry
     Harris-Foulkes estimate   =    -138.95168741 Ry
     estimated scf accuracy    <       0.00000546 Ry

     iteration # 27     ecut=   100.00 Ry     beta=0.30
     Davidson diagonalization with overlap
     ethr =  2.28E-08,  avg # of iterations =  1.0

     total cpu time spent up to now is      671.4 secs

     total energy              =    -138.95168728 Ry
     Harris-Foulkes estimate   =    -138.95168721 Ry
     estimated scf accuracy    <       0.00000481 Ry

     iteration # 28     ecut=   100.00 Ry     beta=0.30
     Davidson diagonalization with overlap
     ethr =  2.00E-08,  avg # of iterations =  1.0

     total cpu time spent up to now is      692.1 secs

     total energy              =    -138.95168718 Ry
     Harris-Foulkes estimate   =    -138.95168729 Ry
     estimated scf accuracy    <       0.00000494 Ry

     iteration # 29     ecut=   100.00 Ry     beta=0.30
     Davidson diagonalization with overlap
     ethr =  2.00E-08,  avg # of iterations =  1.0

     total cpu time spent up to now is      712.9 secs

     total energy              =    -138.95168772 Ry
     Harris-Foulkes estimate   =    -138.95168719 Ry
     estimated scf accuracy    <       0.00000460 Ry

     iteration # 30     ecut=   100.00 Ry     beta=0.30
     Davidson diagonalization with overlap
     ethr =  1.91E-08,  avg # of iterations =  1.0

     total cpu time spent up to now is      733.6 secs

     total energy              =    -138.95168764 Ry
     Harris-Foulkes estimate   =    -138.95168773 Ry
     estimated scf accuracy    <       0.00000601 Ry

     iteration # 31     ecut=   100.00 Ry     beta=0.30
     Davidson diagonalization with overlap
     ethr =  1.91E-08,  avg # of iterations =  1.0

     total cpu time spent up to now is      754.4 secs

     total energy              =    -138.95168539 Ry
     Harris-Foulkes estimate   =    -138.95168765 Ry
     estimated scf accuracy    <       0.00000571 Ry

     iteration # 32     ecut=   100.00 Ry     beta=0.30
     Davidson diagonalization with overlap
     ethr =  1.91E-08,  avg # of iterations =  3.7

     total cpu time spent up to now is      781.0 secs

     End of self-consistent calculation

     Number of k-points >= 100: set verbosity='high' to print the bands.

!    total energy              =    -138.95168598 Ry
     Harris-Foulkes estimate   =    -138.95168650 Ry
     estimated scf accuracy    <       0.00000076 Ry

     The total energy is the sum of the following terms:

     one-electron contribution =     -26.04064477 Ry
     hartree contribution      =      27.58809022 Ry
     xc contribution           =     -26.13870518 Ry
     ewald contribution        =    -114.36042625 Ry

     convergence has been achieved in  32 iterations

     Forces acting on atoms (Ry/au):

     atom    1 type  3   force =    -0.00029570    0.00017073   -0.00114771
     atom    2 type  2   force =    -0.14432346    0.08332519   -0.18309947
     atom    3 type  2   force =     0.14370716   -0.08296937    0.19658348
     atom    4 type  1   force =     0.01556951   -0.00898906   -0.02906916
     atom    5 type  1   force =    -0.01465750    0.00846251    0.01673285

     Total force =     0.359464     Total SCF correction =     0.000606


     entering subroutine stress ...

          total   stress  (Ry/bohr**3)                   (kbar)     P= 1016.27
   0.00960679   0.00037459   0.00055401       1413.21     55.10     81.50
   0.00037459   0.01003932  -0.00031986         55.10   1476.84    -47.05
   0.00055401  -0.00031986   0.00107922         81.50    -47.05    158.76


     BFGS Geometry Optimization

     number of scf cycles    =   1
     number of bfgs steps    =   0

     enthalpy new            =    -137.2159135111 Ry

     new trust radius        =       0.4898547969 bohr
     new conv_thr            =       0.0000010000 Ry

     new unit-cell volume =    218.44812 a.u.^3 (    32.37067 Ang^3 )

CELL_PARAMETERS (alat=  5.86000000)
   1.053228431   0.009364688   0.013850335
  -0.518504158   0.916804922  -0.013850335
   0.018448646  -0.010651331   1.118932166

ATOMIC_POSITIONS (crystal)
Ca      -0.000033641   0.000033641  -0.000147038
O        0.316914282   0.683085718   0.448542310
O        0.683015604   0.316984396   0.563185187
H        0.501771275   0.498228725   0.704275820
H        0.498332480   0.501667520   0.294143720



     Writing output data file CaOH2_ambient.save
     NEW-OLD atomic charge density approx. for the potential
     NEW k-points: (use verbosity='high' to print them)
     extrapolated charge   22.62229, renormalised to   24.00000

     total cpu time spent up to now is      870.8 secs

     per-process dynamical memory:    17.6 Mb

     Self-consistent Calculation

     iteration #  1     ecut=   100.00 Ry     beta=0.30
     Davidson diagonalization with overlap
     ethr =  1.00E-06,  avg # of iterations =  9.9

     total cpu time spent up to now is      951.1 secs

     total energy              =    -139.13528926 Ry
     Harris-Foulkes estimate   =    -140.47208676 Ry
     estimated scf accuracy    <       0.90361439 Ry

     iteration #  2     ecut=   100.00 Ry     beta=0.30
     Davidson diagonalization with overlap
     ethr =  3.77E-03,  avg # of iterations =  2.0

     total cpu time spent up to now is      978.5 secs

     total energy              =    -139.30858957 Ry
     Harris-Foulkes estimate   =    -139.32504283 Ry
     estimated scf accuracy    <       0.09819043 Ry

     iteration #  3     ecut=   100.00 Ry     beta=0.30
     Davidson diagonalization with overlap
     ethr =  4.09E-04,  avg # of iterations =  1.4

     total cpu time spent up to now is      999.6 secs

     total energy              =    -139.28753011 Ry
     Harris-Foulkes estimate   =    -139.31180604 Ry
     estimated scf accuracy    <       0.05233671 Ry

     iteration #  4     ecut=   100.00 Ry     beta=0.30
     Davidson diagonalization with overlap
     ethr =  2.18E-04,  avg # of iterations =  3.4

     total cpu time spent up to now is     1027.7 secs

     total energy              =    -139.30192882 Ry
     Harris-Foulkes estimate   =    -139.30584949 Ry
     estimated scf accuracy    <       0.02238757 Ry

     iteration #  5     ecut=   100.00 Ry     beta=0.30
     Davidson diagonalization with overlap
     ethr =  9.33E-05,  avg # of iterations =  1.2

     total cpu time spent up to now is     1048.6 secs

     total energy              =    -139.29742216 Ry
     Harris-Foulkes estimate   =    -139.30253989 Ry
     estimated scf accuracy    <       0.00983602 Ry

     iteration #  6     ecut=   100.00 Ry     beta=0.30
     Davidson diagonalization with overlap
     ethr =  4.10E-05,  avg # of iterations =  3.3

     total cpu time spent up to now is     1077.8 secs

     total energy              =    -139.30198873 Ry
     Harris-Foulkes estimate   =    -139.30239683 Ry
     estimated scf accuracy    <       0.00565125 Ry

     iteration #  7     ecut=   100.00 Ry     beta=0.30
     Davidson diagonalization with overlap
     ethr =  2.35E-05,  avg # of iterations =  1.0

     total cpu time spent up to now is     1098.5 secs

     total energy              =    -139.30035038 Ry
     Harris-Foulkes estimate   =    -139.30202052 Ry
     estimated scf accuracy    <       0.00448121 Ry

     iteration #  8     ecut=   100.00 Ry     beta=0.30
     Davidson diagonalization with overlap
     ethr =  1.87E-05,  avg # of iterations =  2.7

     total cpu time spent up to now is     1125.1 secs

     total energy              =    -139.30119454 Ry
     Harris-Foulkes estimate   =    -139.30119681 Ry
     estimated scf accuracy    <       0.00003290 Ry

     iteration #  9     ecut=   100.00 Ry     beta=0.30
     Davidson diagonalization with overlap
     ethr =  1.37E-07,  avg # of iterations =  2.9

     total cpu time spent up to now is     1153.9 secs

     total energy              =    -139.30119629 Ry
     Harris-Foulkes estimate   =    -139.30120311 Ry
     estimated scf accuracy    <       0.00002372 Ry

     iteration # 10     ecut=   100.00 Ry     beta=0.30
     Davidson diagonalization with overlap
     ethr =  9.88E-08,  avg # of iterations =  2.4

     total cpu time spent up to now is     1176.5 secs

     total energy              =    -139.30119806 Ry
     Harris-Foulkes estimate   =    -139.30119843 Ry
     estimated scf accuracy    <       0.00000150 Ry

     iteration # 11     ecut=   100.00 Ry     beta=0.30
     Davidson diagonalization with overlap
     ethr =  6.26E-09,  avg # of iterations =  3.2

     total cpu time spent up to now is     1204.3 secs

     End of self-consistent calculation

     Number of k-points >= 100: set verbosity='high' to print the bands.

!    total energy              =    -139.30119839 Ry
     Harris-Foulkes estimate   =    -139.30119841 Ry
     estimated scf accuracy    <       0.00000005 Ry

     The total energy is the sum of the following terms:

     one-electron contribution =     -20.35504670 Ry
     hartree contribution      =      25.60436513 Ry
     xc contribution           =     -26.33965018 Ry
     ewald contribution        =    -118.21086665 Ry

     convergence has been achieved in  11 iterations

     Forces acting on atoms (Ry/au):

     atom    1 type  3   force =    -0.00027644    0.00015960    0.00249377
     atom    2 type  2   force =     0.09128868   -0.05270555   -0.25800811
     atom    3 type  2   force =    -0.08680049    0.05011429    0.25182686
     atom    4 type  1   force =     0.04292734   -0.02478411   -0.06445338
     atom    5 type  1   force =    -0.04713909    0.02721577    0.06814086

     Total force =     0.406652     Total SCF correction =     0.000465


     entering subroutine stress ...

          total   stress  (Ry/bohr**3)                   (kbar)     P=  910.05
   0.00736669   0.00256037   0.00030939       1083.68    376.64     45.51
   0.00256037   0.01032316  -0.00017863        376.64   1518.59    -26.28
   0.00030939  -0.00017863   0.00086930         45.51    -26.28    127.88


     number of scf cycles    =   2
     number of bfgs steps    =   1

     enthalpy old            =    -137.2159135111 Ry
     enthalpy new            =    -137.6677199517 Ry

     CASE: enthalpy_new < enthalpy_old


     WARNING: bfgs curvature condition failed, Theta= 0.935
     new trust radius        =       0.6231054191 bohr
     new conv_thr            =       0.0000010000 Ry

     new unit-cell volume =    190.71960 a.u.^3 (    28.26173 Ang^3 )

CELL_PARAMETERS (alat=  5.86000000)
   1.095934024   0.030935819   0.027467884
  -0.521175807   0.964574615  -0.027467884
   0.036541483  -0.021097235   0.884338349

ATOMIC_POSITIONS (crystal)
Ca      -0.000068239   0.000068239  -0.000201378
O        0.306078111   0.693921889   0.422621449
O        0.693923490   0.306076510   0.590356043
H        0.504449242   0.495550758   0.699556352
H        0.495617396   0.504382604   0.297667533



     Writing output data file CaOH2_ambient.save
     NEW-OLD atomic charge density approx. for the potential
     NEW k-points: (use verbosity='high' to print them)
     extrapolated charge   20.80145, renormalised to   24.00000

     total cpu time spent up to now is     1293.9 secs

     per-process dynamical memory:    17.6 Mb

     Self-consistent Calculation

     iteration #  1     ecut=   100.00 Ry     beta=0.30
     Davidson diagonalization with overlap
     ethr =  1.00E-06,  avg # of iterations =  8.4

     total cpu time spent up to now is     1373.8 secs

     total energy              =    -138.81627457 Ry
     Harris-Foulkes estimate   =    -140.74807364 Ry
     estimated scf accuracy    <       1.09527751 Ry

     iteration #  2     ecut=   100.00 Ry     beta=0.30
     Davidson diagonalization with overlap
     ethr =  4.56E-03,  avg # of iterations =  3.0

     total cpu time spent up to now is     1406.2 secs

     total energy              =    -139.39862997 Ry
     Harris-Foulkes estimate   =    -139.41187623 Ry
     estimated scf accuracy    <       0.07580736 Ry

     iteration #  3     ecut=   100.00 Ry     beta=0.30
     Davidson diagonalization with overlap
     ethr =  3.16E-04,  avg # of iterations =  1.8

     total cpu time spent up to now is     1428.0 secs

     total energy              =    -139.37634654 Ry
     Harris-Foulkes estimate   =    -139.40156744 Ry
     estimated scf accuracy    <       0.04297608 Ry

     iteration #  4     ecut=   100.00 Ry     beta=0.30
     Davidson diagonalization with overlap
     ethr =  1.79E-04,  avg # of iterations =  2.9

     total cpu time spent up to now is     1456.3 secs

     total energy              =    -139.38850306 Ry
     Harris-Foulkes estimate   =    -139.39067944 Ry
     estimated scf accuracy    <       0.01004601 Ry

     iteration #  5     ecut=   100.00 Ry     beta=0.30
     Davidson diagonalization with overlap
     ethr =  4.19E-05,  avg # of iterations =  1.0

     total cpu time spent up to now is     1477.0 secs

     total energy              =    -139.38635387 Ry
     Harris-Foulkes estimate   =    -139.38882545 Ry
     estimated scf accuracy    <       0.00430377 Ry

     iteration #  6     ecut=   100.00 Ry     beta=0.30
     Davidson diagonalization with overlap
     ethr =  1.79E-05,  avg # of iterations =  2.7

     total cpu time spent up to now is     1505.8 secs

     total energy              =    -139.38798784 Ry
     Harris-Foulkes estimate   =    -139.38808677 Ry
     estimated scf accuracy    <       0.00100808 Ry

     iteration #  7     ecut=   100.00 Ry     beta=0.30
     Davidson diagonalization with overlap
     ethr =  4.20E-06,  avg # of iterations =  1.0

     total cpu time spent up to now is     1526.5 secs

     total energy              =    -139.38765227 Ry
     Harris-Foulkes estimate   =    -139.38800051 Ry
     estimated scf accuracy    <       0.00073973 Ry

     iteration #  8     ecut=   100.00 Ry     beta=0.30
     Davidson diagonalization with overlap
     ethr =  3.08E-06,  avg # of iterations =  2.3

     total cpu time spent up to now is     1553.9 secs

     total energy              =    -139.38780526 Ry
     Harris-Foulkes estimate   =    -139.38780605 Ry
     estimated scf accuracy    <       0.00000308 Ry

     iteration #  9     ecut=   100.00 Ry     beta=0.30
     Davidson diagonalization with overlap
     ethr =  1.28E-08,  avg # of iterations =  2.9

     total cpu time spent up to now is     1581.8 secs

     End of self-consistent calculation

     Number of k-points >= 100: set verbosity='high' to print the bands.

!    total energy              =    -139.38780632 Ry
     Harris-Foulkes estimate   =    -139.38780659 Ry
     estimated scf accuracy    <       0.00000082 Ry

     The total energy is the sum of the following terms:

     one-electron contribution =      -9.33877341 Ry
     hartree contribution      =      21.79478673 Ry
     xc contribution           =     -26.57958671 Ry
     ewald contribution        =    -125.26423293 Ry

     convergence has been achieved in   9 iterations

     Forces acting on atoms (Ry/au):

     atom    1 type  3   force =     0.00044528   -0.00025708    0.00473396
     atom    2 type  2   force =     0.22473837   -0.12975276   -0.13313715
     atom    3 type  2   force =    -0.22022861    0.12714905    0.12350054
     atom    4 type  1   force =     0.05392309   -0.03113251    0.01581598
     atom    5 type  1   force =    -0.05887813    0.03399330   -0.01091333

     Total force =     0.416989     Total SCF correction =     0.000674


     entering subroutine stress ...

          total   stress  (Ry/bohr**3)                   (kbar)     P= 1119.72
   0.00570614   0.00432592   0.00031561        839.40    636.36     46.43
   0.00432592   0.01070128  -0.00018222        636.36   1574.21    -26.80
   0.00031561  -0.00018222   0.00642777         46.43    -26.80    945.56


     number of scf cycles    =   3
     number of bfgs steps    =   2

     enthalpy old            =    -137.6677199517 Ry
     enthalpy new            =    -137.9616720669 Ry

     CASE: enthalpy_new < enthalpy_old

     new trust radius        =       0.2526982802 bohr
     new conv_thr            =       0.0000010000 Ry

     new unit-cell volume =    191.48987 a.u.^3 (    28.37587 Ang^3 )

CELL_PARAMETERS (alat=  5.86000000)
   1.122092264   0.083974554   0.043945331
  -0.488322035   1.013747683  -0.043945331
   0.069085135  -0.039886321   0.811217624

ATOMIC_POSITIONS (crystal)
Ca       0.000004769  -0.000004769  -0.000157656
O        0.308316361   0.691683639   0.408194283
O        0.691711191   0.308288809   0.606645110
H        0.509857199   0.490142801   0.703772382
H        0.490110480   0.509889520   0.291545881



     Writing output data file CaOH2_ambient.save
     NEW-OLD atomic charge density approx. for the potential
     NEW k-points: (use verbosity='high' to print them)
     extrapolated charge   24.08850, renormalised to   24.00000

     total cpu time spent up to now is     1672.5 secs

     per-process dynamical memory:    17.6 Mb

     Self-consistent Calculation

     iteration #  1     ecut=   100.00 Ry     beta=0.30
     Davidson diagonalization with overlap
     ethr =  1.00E-06,  avg # of iterations =  7.6

     total cpu time spent up to now is     1742.0 secs

     total energy              =    -139.49299746 Ry
     Harris-Foulkes estimate   =    -139.46229683 Ry
     estimated scf accuracy    <       0.01508530 Ry

     iteration #  2     ecut=   100.00 Ry     beta=0.30
     Davidson diagonalization with overlap
     ethr =  6.29E-05,  avg # of iterations =  1.0

     total cpu time spent up to now is     1762.6 secs

     total energy              =    -139.48778438 Ry
     Harris-Foulkes estimate   =    -139.49315719 Ry
     estimated scf accuracy    <       0.01023560 Ry

     iteration #  3     ecut=   100.00 Ry     beta=0.30
     Davidson diagonalization with overlap
     ethr =  4.26E-05,  avg # of iterations =  2.9

     total cpu time spent up to now is     1791.0 secs

     total energy              =    -139.49035744 Ry
     Harris-Foulkes estimate   =    -139.49077592 Ry
     estimated scf accuracy    <       0.00212061 Ry

     iteration #  4     ecut=   100.00 Ry     beta=0.30
     Davidson diagonalization with overlap
     ethr =  8.84E-06,  avg # of iterations =  1.1

     total cpu time spent up to now is     1811.7 secs

     total energy              =    -139.48975928 Ry
     Harris-Foulkes estimate   =    -139.49041487 Ry
     estimated scf accuracy    <       0.00103404 Ry

     iteration #  5     ecut=   100.00 Ry     beta=0.30
     Davidson diagonalization with overlap
     ethr =  4.31E-06,  avg # of iterations =  2.7

     total cpu time spent up to now is     1840.4 secs

     total energy              =    -139.49011018 Ry
     Harris-Foulkes estimate   =    -139.49026284 Ry
     estimated scf accuracy    <       0.00037632 Ry

     iteration #  6     ecut=   100.00 Ry     beta=0.30
     Davidson diagonalization with overlap
     ethr =  1.57E-06,  avg # of iterations =  2.0

     total cpu time spent up to now is     1866.2 secs

     total energy              =    -139.49014493 Ry
     Harris-Foulkes estimate   =    -139.49015590 Ry
     estimated scf accuracy    <       0.00002234 Ry

     iteration #  7     ecut=   100.00 Ry     beta=0.30
     Davidson diagonalization with overlap
     ethr =  9.31E-08,  avg # of iterations =  2.5

     total cpu time spent up to now is     1894.7 secs

     total energy              =    -139.49015093 Ry
     Harris-Foulkes estimate   =    -139.49015105 Ry
     estimated scf accuracy    <       0.00000228 Ry

     iteration #  8     ecut=   100.00 Ry     beta=0.30
     Davidson diagonalization with overlap
     ethr =  9.50E-09,  avg # of iterations =  1.0

     total cpu time spent up to now is     1915.5 secs

     total energy              =    -139.49015032 Ry
     Harris-Foulkes estimate   =    -139.49015097 Ry
     estimated scf accuracy    <       0.00000196 Ry

     iteration #  9     ecut=   100.00 Ry     beta=0.30
     Davidson diagonalization with overlap
     ethr =  8.15E-09,  avg # of iterations =  2.0

     total cpu time spent up to now is     1938.9 secs

     End of self-consistent calculation

     Number of k-points >= 100: set verbosity='high' to print the bands.

!    total energy              =    -139.49015015 Ry
     Harris-Foulkes estimate   =    -139.49015046 Ry
     estimated scf accuracy    <       0.00000039 Ry

     The total energy is the sum of the following terms:

     one-electron contribution =      -9.80187627 Ry
     hartree contribution      =      21.76407251 Ry
     xc contribution           =     -26.62089417 Ry
     ewald contribution        =    -124.83145222 Ry

     convergence has been achieved in   9 iterations

     Forces acting on atoms (Ry/au):

     atom    1 type  3   force =    -0.00095473    0.00055122    0.00569814
     atom    2 type  2   force =     0.13718800   -0.07920553   -0.09373823
     atom    3 type  2   force =    -0.13058298    0.07539212    0.08789113
     atom    4 type  1   force =     0.04474810   -0.02583533    0.05616249
     atom    5 type  1   force =    -0.05039839    0.02909752   -0.05601354

     Total force =     0.276990     Total SCF correction =     0.000682


     entering subroutine stress ...

          total   stress  (Ry/bohr**3)                   (kbar)     P=  962.59
   0.00430679   0.00177165   0.00058852        633.55    260.62     86.57
   0.00177165   0.00635251  -0.00033978        260.62    934.49    -49.98
   0.00058852  -0.00033978   0.00897137         86.57    -49.98   1319.73


     number of scf cycles    =   4
     number of bfgs steps    =   3

     enthalpy old            =    -137.9616720669 Ry
     enthalpy new            =    -138.0582560628 Ry

     CASE: enthalpy_new < enthalpy_old

     new trust radius        =       0.2285345898 bohr
     new conv_thr            =       0.0000010000 Ry

     new unit-cell volume =    195.46892 a.u.^3 (    28.96551 Ang^3 )

CELL_PARAMETERS (alat=  5.86000000)
   1.091552595   0.119616616   0.061989226
  -0.442185269   1.005120584  -0.061989226
   0.121090264  -0.069911497   0.854432681

ATOMIC_POSITIONS (crystal)
Ca      -0.000072923   0.000072923   0.000141926
O        0.313886112   0.686113888   0.396547591
O        0.686737429   0.313262571   0.619610855
H        0.516611142   0.483388858   0.711259633
H        0.482838240   0.517161760   0.282439994



     Writing output data file CaOH2_ambient.save
     NEW-OLD atomic charge density approx. for the potential
     NEW k-points: (use verbosity='high' to print them)
     extrapolated charge   24.44784, renormalised to   24.00000

     total cpu time spent up to now is     2030.4 secs

     per-process dynamical memory:    17.6 Mb

     Self-consistent Calculation

     iteration #  1     ecut=   100.00 Ry     beta=0.30
     Davidson diagonalization with overlap
     ethr =  1.00E-06,  avg # of iterations =  6.6

     total cpu time spent up to now is     2094.7 secs

     total energy              =    -139.56940604 Ry
     Harris-Foulkes estimate   =    -139.36153766 Ry
     estimated scf accuracy    <       0.01153826 Ry

     iteration #  2     ecut=   100.00 Ry     beta=0.30
     Davidson diagonalization with overlap
     ethr =  4.81E-05,  avg # of iterations =  3.0

     total cpu time spent up to now is     2127.6 secs

     total energy              =    -139.57659523 Ry
     Harris-Foulkes estimate   =    -139.57726272 Ry
     estimated scf accuracy    <       0.01994888 Ry

     iteration #  3     ecut=   100.00 Ry     beta=0.30
     Davidson diagonalization with overlap
     ethr =  4.81E-05,  avg # of iterations =  1.0

     total cpu time spent up to now is     2148.3 secs

     total energy              =    -139.56636556 Ry
     Harris-Foulkes estimate   =    -139.57662079 Ry
     estimated scf accuracy    <       0.01814048 Ry

     iteration #  4     ecut=   100.00 Ry     beta=0.30
     Davidson diagonalization with overlap
     ethr =  4.81E-05,  avg # of iterations =  2.3

     total cpu time spent up to now is     2177.8 secs

     total energy              =    -139.57094208 Ry
     Harris-Foulkes estimate   =    -139.57127394 Ry
     estimated scf accuracy    <       0.00186582 Ry

     iteration #  5     ecut=   100.00 Ry     beta=0.30
     Davidson diagonalization with overlap
     ethr =  7.77E-06,  avg # of iterations =  1.0

     total cpu time spent up to now is     2198.5 secs

     total energy              =    -139.57045437 Ry
     Harris-Foulkes estimate   =    -139.57099006 Ry
     estimated scf accuracy    <       0.00103815 Ry

     iteration #  6     ecut=   100.00 Ry     beta=0.30
     Davidson diagonalization with overlap
     ethr =  4.33E-06,  avg # of iterations =  2.0

     total cpu time spent up to now is     2226.1 secs

     total energy              =    -139.57069654 Ry
     Harris-Foulkes estimate   =    -139.57069835 Ry
     estimated scf accuracy    <       0.00001773 Ry

     iteration #  7     ecut=   100.00 Ry     beta=0.30
     Davidson diagonalization with overlap
     ethr =  7.39E-08,  avg # of iterations =  2.0

     total cpu time spent up to now is     2250.0 secs

     total energy              =    -139.57069245 Ry
     Harris-Foulkes estimate   =    -139.57069816 Ry
     estimated scf accuracy    <       0.00001261 Ry

     iteration #  8     ecut=   100.00 Ry     beta=0.30
     Davidson diagonalization with overlap
     ethr =  5.26E-08,  avg # of iterations =  2.0

     total cpu time spent up to now is     2276.4 secs

     End of self-consistent calculation

     Number of k-points >= 100: set verbosity='high' to print the bands.

!    total energy              =    -139.57069431 Ry
     Harris-Foulkes estimate   =    -139.57069445 Ry
     estimated scf accuracy    <       0.00000025 Ry

     The total energy is the sum of the following terms:

     one-electron contribution =     -13.48119201 Ry
     hartree contribution      =      23.23753698 Ry
     xc contribution           =     -26.79211608 Ry
     ewald contribution        =    -122.53492320 Ry

     convergence has been achieved in   8 iterations

     Forces acting on atoms (Ry/au):

     atom    1 type  3   force =    -0.00199761    0.00115332    0.00771563
     atom    2 type  2   force =    -0.05150377    0.02973571   -0.08281364
     atom    3 type  2   force =     0.05245128   -0.03028276    0.08810008
     atom    4 type  1   force =    -0.08202211    0.04735549    0.05472441
     atom    5 type  1   force =     0.08307220   -0.04796176   -0.06772648

     Total force =     0.218272     Total SCF correction =     0.001057


     entering subroutine stress ...

          total   stress  (Ry/bohr**3)                   (kbar)     P= 1034.18
   0.00697982  -0.00056638  -0.00053463       1026.77    -83.32    -78.65
  -0.00056638   0.00632582   0.00030867        -83.32    930.56     45.41
  -0.00053463   0.00030867   0.00778490        -78.65     45.41   1145.20


     number of scf cycles    =   5
     number of bfgs steps    =   4

     enthalpy old            =    -138.0582560628 Ry
     enthalpy new            =    -138.1090462615 Ry

     CASE: enthalpy_new < enthalpy_old

     new trust radius        =       0.0844232305 bohr
     new conv_thr            =       0.0000008810 Ry

     new unit-cell volume =    194.89553 a.u.^3 (    28.88054 Ang^3 )

CELL_PARAMETERS (alat=  5.86000000)
   1.073231561   0.121154698   0.052534588
  -0.431692734   0.990023145  -0.052534588
   0.105286885  -0.060787411   0.876115290

ATOMIC_POSITIONS (crystal)
Ca      -0.000229285   0.000229285   0.000745769
O        0.313039743   0.686960257   0.389247003
O        0.687848350   0.312151650   0.627065807
H        0.509883269   0.490116731   0.714566106
H        0.489457922   0.510542078   0.278375314



     Writing output data file CaOH2_ambient.save
     NEW-OLD atomic charge density approx. for the potential
     NEW k-points: (use verbosity='high' to print them)
     extrapolated charge   23.93527, renormalised to   24.00000

     total cpu time spent up to now is     2366.5 secs

     per-process dynamical memory:    17.6 Mb

     Self-consistent Calculation

     iteration #  1     ecut=   100.00 Ry     beta=0.30
     Davidson diagonalization with overlap
     ethr =  1.00E-06,  avg # of iterations =  6.0

     total cpu time spent up to now is     2425.4 secs

     total energy              =    -139.59052701 Ry
     Harris-Foulkes estimate   =    -139.62096003 Ry
     estimated scf accuracy    <       0.00195306 Ry

     iteration #  2     ecut=   100.00 Ry     beta=0.30
     Davidson diagonalization with overlap
     ethr =  8.14E-06,  avg # of iterations =  1.4

     total cpu time spent up to now is     2447.0 secs

     total energy              =    -139.59032412 Ry
     Harris-Foulkes estimate   =    -139.59066526 Ry
     estimated scf accuracy    <       0.00150316 Ry

     iteration #  3     ecut=   100.00 Ry     beta=0.30
     Davidson diagonalization with overlap
     ethr =  6.26E-06,  avg # of iterations =  1.0

     total cpu time spent up to now is     2467.7 secs

     total energy              =    -139.59004753 Ry
     Harris-Foulkes estimate   =    -139.59035905 Ry
     estimated scf accuracy    <       0.00062201 Ry

     iteration #  4     ecut=   100.00 Ry     beta=0.30
     Davidson diagonalization with overlap
     ethr =  2.59E-06,  avg # of iterations =  2.0

     total cpu time spent up to now is     2495.3 secs

     total energy              =    -139.59017685 Ry
     Harris-Foulkes estimate   =    -139.59019328 Ry
     estimated scf accuracy    <       0.00007904 Ry

     iteration #  5     ecut=   100.00 Ry     beta=0.30
     Davidson diagonalization with overlap
     ethr =  3.29E-07,  avg # of iterations =  1.0

     total cpu time spent up to now is     2516.0 secs

     total energy              =    -139.59015866 Ry
     Harris-Foulkes estimate   =    -139.59017941 Ry
     estimated scf accuracy    <       0.00003746 Ry

     iteration #  6     ecut=   100.00 Ry     beta=0.30
     Davidson diagonalization with overlap
     ethr =  1.56E-07,  avg # of iterations =  2.0

     total cpu time spent up to now is     2543.9 secs

     total energy              =    -139.59017191 Ry
     Harris-Foulkes estimate   =    -139.59017186 Ry
     estimated scf accuracy    <       0.00000747 Ry

     iteration #  7     ecut=   100.00 Ry     beta=0.30
     Davidson diagonalization with overlap
     ethr =  3.11E-08,  avg # of iterations =  1.0

     total cpu time spent up to now is     2564.6 secs

     total energy              =    -139.59016877 Ry
     Harris-Foulkes estimate   =    -139.59017198 Ry
     estimated scf accuracy    <       0.00000752 Ry

     iteration #  8     ecut=   100.00 Ry     beta=0.30
     Davidson diagonalization with overlap
     ethr =  3.11E-08,  avg # of iterations =  2.0

     total cpu time spent up to now is     2590.2 secs

     End of self-consistent calculation

     Number of k-points >= 100: set verbosity='high' to print the bands.

!    total energy              =    -139.59016938 Ry
     Harris-Foulkes estimate   =    -139.59016967 Ry
     estimated scf accuracy    <       0.00000037 Ry

     The total energy is the sum of the following terms:

     one-electron contribution =     -12.73221740 Ry
     hartree contribution      =      22.96647255 Ry
     xc contribution           =     -26.75342341 Ry
     ewald contribution        =    -123.07100112 Ry

     convergence has been achieved in   8 iterations

     Forces acting on atoms (Ry/au):

     atom    1 type  3   force =     0.00193507   -0.00111722    0.00737304
     atom    2 type  2   force =    -0.01372818    0.00792597   -0.09382218
     atom    3 type  2   force =     0.01098178   -0.00634034    0.09597547
     atom    4 type  1   force =    -0.04086482    0.02359332    0.03758339
     atom    5 type  1   force =     0.04167615   -0.02406174   -0.04710972

     Total force =     0.163278     Total SCF correction =     0.000526


     entering subroutine stress ...

          total   stress  (Ry/bohr**3)                   (kbar)     P= 1027.52
   0.00693291  -0.00015578   0.00029948       1019.87    -22.92     44.06
  -0.00015578   0.00675303  -0.00017291        -22.92    993.41    -25.44
   0.00029948  -0.00017291   0.00726882         44.06    -25.44   1069.28


     number of scf cycles    =   6
     number of bfgs steps    =   5

     enthalpy old            =    -138.1090462615 Ry
     enthalpy new            =    -138.1328089801 Ry

     CASE: enthalpy_new < enthalpy_old

     new trust radius        =       0.2144979575 bohr
     new conv_thr            =       0.0000009598 Ry

     new unit-cell volume =    181.46665 a.u.^3 (    26.89058 Ang^3 )

CELL_PARAMETERS (alat=  5.86000000)
   1.007770665   0.145151546   0.055298467
  -0.378180406   0.945330770  -0.055298467
   0.122720684  -0.070852820   0.904804616

ATOMIC_POSITIONS (crystal)
Ca      -0.000042765   0.000042765   0.003357393
O        0.310134954   0.689865046   0.352298923
O        0.690912967   0.309087033   0.665367193
H        0.490725057   0.509274943   0.729814454
H        0.508269786   0.491730214   0.259162037



     Writing output data file CaOH2_ambient.save
     NEW-OLD atomic charge density approx. for the potential
     NEW k-points: (use verbosity='high' to print them)
     extrapolated charge   22.37196, renormalised to   24.00000

     total cpu time spent up to now is     2680.1 secs

     per-process dynamical memory:    17.6 Mb

     Self-consistent Calculation

     iteration #  1     ecut=   100.00 Ry     beta=0.30
     Davidson diagonalization with overlap
     ethr =  1.00E-06,  avg # of iterations =  7.2

     total cpu time spent up to now is     2751.0 secs

     total energy              =    -139.40177789 Ry
     Harris-Foulkes estimate   =    -140.13234126 Ry
     estimated scf accuracy    <       0.16492568 Ry

     iteration #  2     ecut=   100.00 Ry     beta=0.30
     Davidson diagonalization with overlap
     ethr =  6.87E-04,  avg # of iterations =  3.0

     total cpu time spent up to now is     2784.1 secs

     total energy              =    -139.53291679 Ry
     Harris-Foulkes estimate   =    -139.53663537 Ry
     estimated scf accuracy    <       0.02657025 Ry

     iteration #  3     ecut=   100.00 Ry     beta=0.30
     Davidson diagonalization with overlap
     ethr =  1.11E-04,  avg # of iterations =  1.0

     total cpu time spent up to now is     2804.9 secs

     total energy              =    -139.52438708 Ry
     Harris-Foulkes estimate   =    -139.53347219 Ry
     estimated scf accuracy    <       0.01589927 Ry

     iteration #  4     ecut=   100.00 Ry     beta=0.30
     Davidson diagonalization with overlap
     ethr =  6.62E-05,  avg # of iterations =  2.4

     total cpu time spent up to now is     2833.3 secs

     total energy              =    -139.52911246 Ry
     Harris-Foulkes estimate   =    -139.53050563 Ry
     estimated scf accuracy    <       0.00402969 Ry

     iteration #  5     ecut=   100.00 Ry     beta=0.30
     Davidson diagonalization with overlap
     ethr =  1.68E-05,  avg # of iterations =  2.0

     total cpu time spent up to now is     2859.2 secs

     total energy              =    -139.52907246 Ry
     Harris-Foulkes estimate   =    -139.52943953 Ry
     estimated scf accuracy    <       0.00064407 Ry

     iteration #  6     ecut=   100.00 Ry     beta=0.30
     Davidson diagonalization with overlap
     ethr =  2.68E-06,  avg # of iterations =  2.0

     total cpu time spent up to now is     2888.9 secs

     total energy              =    -139.52923750 Ry
     Harris-Foulkes estimate   =    -139.52924446 Ry
     estimated scf accuracy    <       0.00005766 Ry

     iteration #  7     ecut=   100.00 Ry     beta=0.30
     Davidson diagonalization with overlap
     ethr =  2.40E-07,  avg # of iterations =  1.0

     total cpu time spent up to now is     2909.6 secs

     total energy              =    -139.52922085 Ry
     Harris-Foulkes estimate   =    -139.52923880 Ry
     estimated scf accuracy    <       0.00003603 Ry

     iteration #  8     ecut=   100.00 Ry     beta=0.30
     Davidson diagonalization with overlap
     ethr =  1.50E-07,  avg # of iterations =  2.0

     total cpu time spent up to now is     2936.4 secs

     End of self-consistent calculation

     Number of k-points >= 100: set verbosity='high' to print the bands.

!    total energy              =    -139.52922803 Ry
     Harris-Foulkes estimate   =    -139.52922803 Ry
     estimated scf accuracy    <       0.00000012 Ry

     The total energy is the sum of the following terms:

     one-electron contribution =      -8.10739771 Ry
     hartree contribution      =      21.84547464 Ry
     xc contribution           =     -26.90744730 Ry
     ewald contribution        =    -126.35985765 Ry

     convergence has been achieved in   8 iterations

     Forces acting on atoms (Ry/au):

     atom    1 type  3   force =     0.00683885   -0.00394841    0.00926650
     atom    2 type  2   force =     0.03800398   -0.02194161   -0.07138935
     atom    3 type  2   force =    -0.05407562    0.03122057    0.07476927
     atom    4 type  1   force =    -0.00587686    0.00339301   -0.00396040
     atom    5 type  1   force =     0.01510965   -0.00872356   -0.00868601

     Total force =     0.130772     Total SCF correction =     0.000791


     entering subroutine stress ...

          total   stress  (Ry/bohr**3)                   (kbar)     P= 1411.68
   0.01009865  -0.00080958   0.00125495       1485.56   -119.09    184.61
  -0.00080958   0.00916383  -0.00072454       -119.09   1348.05   -106.58
   0.00125495  -0.00072454   0.00952679        184.61   -106.58   1401.44


     number of scf cycles    =   7
     number of bfgs steps    =   6

     enthalpy old            =    -138.1328089801 Ry
     enthalpy new            =    -138.1722840848 Ry

     CASE: enthalpy_new < enthalpy_old

     new trust radius        =       0.2419049927 bohr
     new conv_thr            =       0.0000007477 Ry

     new unit-cell volume =    191.15619 a.u.^3 (    28.32642 Ang^3 )

CELL_PARAMETERS (alat=  5.86000000)
   0.989343801   0.154588849   0.071703890
  -0.360794030   0.934091289  -0.071703890
   0.165905151  -0.095785384   0.987033936

ATOMIC_POSITIONS (crystal)
Ca       0.000738599  -0.000738599   0.006686742
O        0.313052864   0.686947136   0.310927202
O        0.686786481   0.313213519   0.707706099
H        0.471478310   0.528521690   0.742460800
H        0.527943745   0.472056255   0.242219157



     Writing output data file CaOH2_ambient.save
     NEW-OLD atomic charge density approx. for the potential
     NEW k-points: (use verbosity='high' to print them)
     extrapolated charge   25.11516, renormalised to   24.00000

     total cpu time spent up to now is     3026.4 secs

     per-process dynamical memory:    17.6 Mb

     Self-consistent Calculation

     iteration #  1     ecut=   100.00 Ry     beta=0.30
     Davidson diagonalization with overlap
     ethr =  1.00E-06,  avg # of iterations =  8.0

     total cpu time spent up to now is     3102.0 secs

     total energy              =    -139.57135720 Ry
     Harris-Foulkes estimate   =    -139.16312901 Ry
     estimated scf accuracy    <       0.15658870 Ry

     iteration #  2     ecut=   100.00 Ry     beta=0.30
     Davidson diagonalization with overlap
     ethr =  6.52E-04,  avg # of iterations =  3.0

     total cpu time spent up to now is     3134.6 secs

     total energy              =    -139.63731749 Ry
     Harris-Foulkes estimate   =    -139.64516894 Ry
     estimated scf accuracy    <       0.04632973 Ry

     iteration #  3     ecut=   100.00 Ry     beta=0.30
     Davidson diagonalization with overlap
     ethr =  1.93E-04,  avg # of iterations =  1.0

     total cpu time spent up to now is     3155.3 secs

     total energy              =    -139.61951718 Ry
     Harris-Foulkes estimate   =    -139.63792018 Ry
     estimated scf accuracy    <       0.02912010 Ry

     iteration #  4     ecut=   100.00 Ry     beta=0.30
     Davidson diagonalization with overlap
     ethr =  1.21E-04,  avg # of iterations =  2.1

     total cpu time spent up to now is     3182.3 secs

     total energy              =    -139.62603428 Ry
     Harris-Foulkes estimate   =    -139.62648117 Ry
     estimated scf accuracy    <       0.00248923 Ry

     iteration #  5     ecut=   100.00 Ry     beta=0.30
     Davidson diagonalization with overlap
     ethr =  1.04E-05,  avg # of iterations =  1.4

     total cpu time spent up to now is     3203.4 secs

     total energy              =    -139.62537799 Ry
     Harris-Foulkes estimate   =    -139.62611685 Ry
     estimated scf accuracy    <       0.00139650 Ry

     iteration #  6     ecut=   100.00 Ry     beta=0.30
     Davidson diagonalization with overlap
     ethr =  5.82E-06,  avg # of iterations =  2.0

     total cpu time spent up to now is     3231.0 secs

     total energy              =    -139.62576944 Ry
     Harris-Foulkes estimate   =    -139.62578075 Ry
     estimated scf accuracy    <       0.00011997 Ry

     iteration #  7     ecut=   100.00 Ry     beta=0.30
     Davidson diagonalization with overlap
     ethr =  5.00E-07,  avg # of iterations =  1.1

     total cpu time spent up to now is     3251.8 secs

     total energy              =    -139.62572949 Ry
     Harris-Foulkes estimate   =    -139.62577319 Ry
     estimated scf accuracy    <       0.00009047 Ry

     iteration #  8     ecut=   100.00 Ry     beta=0.30
     Davidson diagonalization with overlap
     ethr =  3.77E-07,  avg # of iterations =  2.0

     total cpu time spent up to now is     3278.9 secs

     End of self-consistent calculation

     Number of k-points >= 100: set verbosity='high' to print the bands.

!    total energy              =    -139.62574678 Ry
     Harris-Foulkes estimate   =    -139.62574712 Ry
     estimated scf accuracy    <       0.00000072 Ry

     The total energy is the sum of the following terms:

     one-electron contribution =     -11.71888880 Ry
     hartree contribution      =      22.83720030 Ry
     xc contribution           =     -26.73193882 Ry
     ewald contribution        =    -124.01211947 Ry

     convergence has been achieved in   8 iterations

     Forces acting on atoms (Ry/au):

     atom    1 type  3   force =    -0.00292068    0.00168626    0.00127836
     atom    2 type  2   force =     0.03961918   -0.02287414    0.03686216
     atom    3 type  2   force =    -0.05194925    0.02999291   -0.02982428
     atom    4 type  1   force =     0.05333209   -0.03079130   -0.02747377
     atom    5 type  1   force =    -0.03808134    0.02198627    0.01915754

     Total force =     0.121657     Total SCF correction =     0.002169


     entering subroutine stress ...

          total   stress  (Ry/bohr**3)                   (kbar)     P= 1116.86
   0.00789927  -0.00039492   0.00063587       1162.02    -58.10     93.54
  -0.00039492   0.00744325  -0.00036712        -58.10   1094.94    -54.01
   0.00063587  -0.00036712   0.00743422         93.54    -54.01   1093.61


     number of scf cycles    =   8
     number of bfgs steps    =   7

     enthalpy old            =    -138.1722840848 Ry
     enthalpy new            =    -138.1963478184 Ry

     CASE: enthalpy_new < enthalpy_old

     new trust radius        =       0.1328173618 bohr
     new conv_thr            =       0.0000005333 Ry

     new unit-cell volume =    193.91657 a.u.^3 (    28.73547 Ang^3 )

CELL_PARAMETERS (alat=  5.86000000)
   1.020134097   0.136492085   0.075999377
  -0.391861436   0.951708086  -0.075999377
   0.162300995  -0.093704523   0.958214892

ATOMIC_POSITIONS (crystal)
Ca       0.000343680  -0.000343680   0.005422912
O        0.314597251   0.685402749   0.331943842
O        0.684518411   0.315481589   0.686408027
H        0.482406203   0.517593797   0.734609839
H        0.518134456   0.481865544   0.251615380



     Writing output data file CaOH2_ambient.save
     NEW-OLD atomic charge density approx. for the potential
     NEW k-points: (use verbosity='high' to print them)
     extrapolated charge   24.31317, renormalised to   24.00000

     total cpu time spent up to now is     3368.8 secs

     per-process dynamical memory:    17.6 Mb

     Self-consistent Calculation

     iteration #  1     ecut=   100.00 Ry     beta=0.30
     Davidson diagonalization with overlap
     ethr =  1.00E-06,  avg # of iterations =  7.1

     total cpu time spent up to now is     3435.9 secs

     total energy              =    -139.65353911 Ry
     Harris-Foulkes estimate   =    -139.51650108 Ry
     estimated scf accuracy    <       0.01584875 Ry

     iteration #  2     ecut=   100.00 Ry     beta=0.30
     Davidson diagonalization with overlap
     ethr =  6.60E-05,  avg # of iterations =  2.2

     total cpu time spent up to now is     3466.5 secs

     total energy              =    -139.65681395 Ry
     Harris-Foulkes estimate   =    -139.65840898 Ry
     estimated scf accuracy    <       0.01072709 Ry

     iteration #  3     ecut=   100.00 Ry     beta=0.30
     Davidson diagonalization with overlap
     ethr =  4.47E-05,  avg # of iterations =  1.0

     total cpu time spent up to now is     3487.1 secs

     total energy              =    -139.65263439 Ry
     Harris-Foulkes estimate   =    -139.65690525 Ry
     estimated scf accuracy    <       0.00699728 Ry

     iteration #  4     ecut=   100.00 Ry     beta=0.30
     Davidson diagonalization with overlap
     ethr =  2.92E-05,  avg # of iterations =  2.1

     total cpu time spent up to now is     3514.7 secs

     total energy              =    -139.65424404 Ry
     Harris-Foulkes estimate   =    -139.65449152 Ry
     estimated scf accuracy    <       0.00076455 Ry

     iteration #  5     ecut=   100.00 Ry     beta=0.30
     Davidson diagonalization with overlap
     ethr =  3.19E-06,  avg # of iterations =  2.0

     total cpu time spent up to now is     3539.3 secs

     total energy              =    -139.65420546 Ry
     Harris-Foulkes estimate   =    -139.65430646 Ry
     estimated scf accuracy    <       0.00017393 Ry

     iteration #  6     ecut=   100.00 Ry     beta=0.30
     Davidson diagonalization with overlap
     ethr =  7.25E-07,  avg # of iterations =  2.7

     total cpu time spent up to now is     3568.2 secs

     total energy              =    -139.65426444 Ry
     Harris-Foulkes estimate   =    -139.65426456 Ry
     estimated scf accuracy    <       0.00003987 Ry

     iteration #  7     ecut=   100.00 Ry     beta=0.30
     Davidson diagonalization with overlap
     ethr =  1.66E-07,  avg # of iterations =  1.0

     total cpu time spent up to now is     3589.0 secs

     total energy              =    -139.65424544 Ry
     Harris-Foulkes estimate   =    -139.65426509 Ry
     estimated scf accuracy    <       0.00004032 Ry

     iteration #  8     ecut=   100.00 Ry     beta=0.30
     Davidson diagonalization with overlap
     ethr =  1.66E-07,  avg # of iterations =  2.0

     total cpu time spent up to now is     3615.6 secs

     total energy              =    -139.65425221 Ry
     Harris-Foulkes estimate   =    -139.65425237 Ry
     estimated scf accuracy    <       0.00000062 Ry

     iteration #  9     ecut=   100.00 Ry     beta=0.30
     Davidson diagonalization with overlap
     ethr =  2.60E-09,  avg # of iterations =  2.2

     total cpu time spent up to now is     3642.3 secs

     End of self-consistent calculation

     Number of k-points >= 100: set verbosity='high' to print the bands.

!    total energy              =    -139.65425218 Ry
     Harris-Foulkes estimate   =    -139.65425231 Ry
     estimated scf accuracy    <       0.00000024 Ry

     The total energy is the sum of the following terms:

     one-electron contribution =     -12.19646517 Ry
     hartree contribution      =      22.87282544 Ry
     xc contribution           =     -26.71052404 Ry
     ewald contribution        =    -123.62008840 Ry

     convergence has been achieved in   9 iterations

     Forces acting on atoms (Ry/au):

     atom    1 type  3   force =    -0.00260341    0.00150308    0.00314945
     atom    2 type  2   force =     0.01880722   -0.01085835   -0.03726960
     atom    3 type  2   force =    -0.01717272    0.00991467    0.04258013
     atom    4 type  1   force =     0.02036011   -0.01175492   -0.01327847
     atom    5 type  1   force =    -0.01939119    0.01119551    0.00481850

     Total force =     0.073072     Total SCF correction =     0.001407


     entering subroutine stress ...

          total   stress  (Ry/bohr**3)                   (kbar)     P= 1026.69
   0.00664990   0.00050183  -0.00010955        978.23     73.82    -16.11
   0.00050183   0.00722936   0.00006325         73.82   1063.47      9.30
  -0.00010955   0.00006325   0.00705855        -16.11      9.30   1038.35


     number of scf cycles    =   9
     number of bfgs steps    =   8

     enthalpy old            =    -138.1963478184 Ry
     enthalpy new            =    -138.2042120806 Ry

     CASE: enthalpy_new < enthalpy_old

     new trust radius        =       0.0386276562 bohr
     new conv_thr            =       0.0000004258 Ry

     new unit-cell volume =    191.64501 a.u.^3 (    28.39886 Ang^3 )

CELL_PARAMETERS (alat=  5.86000000)
   1.010076224   0.143239395   0.076070798
  -0.380989157   0.946371368  -0.076070798
   0.163785672  -0.094561702   0.960403882

ATOMIC_POSITIONS (crystal)
Ca       0.000094139  -0.000094139   0.005839812
O        0.314340577   0.685659423   0.326471266
O        0.684787594   0.315212406   0.692727187
H        0.482367829   0.517632171   0.735668991
H        0.518409861   0.481590139   0.249292745



     Writing output data file CaOH2_ambient.save
     NEW-OLD atomic charge density approx. for the potential
     NEW k-points: (use verbosity='high' to print them)
     extrapolated charge   23.73924, renormalised to   24.00000

     total cpu time spent up to now is     3732.0 secs

     per-process dynamical memory:    17.6 Mb

     Self-consistent Calculation

     iteration #  1     ecut=   100.00 Ry     beta=0.30
     Davidson diagonalization with overlap
     ethr =  1.00E-06,  avg # of iterations =  5.0

     total cpu time spent up to now is     3786.6 secs

     total energy              =    -139.63697522 Ry
     Harris-Foulkes estimate   =    -139.75851397 Ry
     estimated scf accuracy    <       0.00562954 Ry

     iteration #  2     ecut=   100.00 Ry     beta=0.30
     Davidson diagonalization with overlap
     ethr =  2.35E-05,  avg # of iterations =  3.0

     total cpu time spent up to now is     3819.3 secs

     total energy              =    -139.64071815 Ry
     Harris-Foulkes estimate   =    -139.64084100 Ry
     estimated scf accuracy    <       0.00078397 Ry

     iteration #  3     ecut=   100.00 Ry     beta=0.30
     Davidson diagonalization with overlap
     ethr =  3.27E-06,  avg # of iterations =  1.0

     total cpu time spent up to now is     3840.0 secs

     total energy              =    -139.64045327 Ry
     Harris-Foulkes estimate   =    -139.64073560 Ry
     estimated scf accuracy    <       0.00047278 Ry

     iteration #  4     ecut=   100.00 Ry     beta=0.30
     Davidson diagonalization with overlap
     ethr =  1.97E-06,  avg # of iterations =  2.1

     total cpu time spent up to now is     3867.7 secs

     total energy              =    -139.64057969 Ry
     Harris-Foulkes estimate   =    -139.64060609 Ry
     estimated scf accuracy    <       0.00008870 Ry

     iteration #  5     ecut=   100.00 Ry     beta=0.30
     Davidson diagonalization with overlap
     ethr =  3.70E-07,  avg # of iterations =  1.9

     total cpu time spent up to now is     3889.5 secs

     total energy              =    -139.64057032 Ry
     Harris-Foulkes estimate   =    -139.64058460 Ry
     estimated scf accuracy    <       0.00002472 Ry

     iteration #  6     ecut=   100.00 Ry     beta=0.30
     Davidson diagonalization with overlap
     ethr =  1.03E-07,  avg # of iterations =  2.1

     total cpu time spent up to now is     3919.0 secs

     total energy              =    -139.64057838 Ry
     Harris-Foulkes estimate   =    -139.64057867 Ry
     estimated scf accuracy    <       0.00000322 Ry

     iteration #  7     ecut=   100.00 Ry     beta=0.30
     Davidson diagonalization with overlap
     ethr =  1.34E-08,  avg # of iterations =  1.0

     total cpu time spent up to now is     3939.7 secs

     total energy              =    -139.64057714 Ry
     Harris-Foulkes estimate   =    -139.64057843 Ry
     estimated scf accuracy    <       0.00000244 Ry

     iteration #  8     ecut=   100.00 Ry     beta=0.30
     Davidson diagonalization with overlap
     ethr =  1.01E-08,  avg # of iterations =  2.0

     total cpu time spent up to now is     3966.9 secs

     End of self-consistent calculation

     Number of k-points >= 100: set verbosity='high' to print the bands.

!    total energy              =    -139.64057769 Ry
     Harris-Foulkes estimate   =    -139.64057771 Ry
     estimated scf accuracy    <       0.00000004 Ry

     The total energy is the sum of the following terms:

     one-electron contribution =     -11.71433445 Ry
     hartree contribution      =      22.79458188 Ry
     xc contribution           =     -26.75675474 Ry
     ewald contribution        =    -123.96407038 Ry

     convergence has been achieved in   8 iterations

     Forces acting on atoms (Ry/au):

     atom    1 type  3   force =    -0.00109393    0.00063158    0.00348177
     atom    2 type  2   force =     0.00488144   -0.00281830   -0.01613544
     atom    3 type  2   force =    -0.00615025    0.00355085    0.02262358
     atom    4 type  1   force =     0.01132198   -0.00653675   -0.01593906
     atom    5 type  1   force =    -0.00895924    0.00517262    0.00596915

     Total force =     0.037891     Total SCF correction =     0.000302


     entering subroutine stress ...

          total   stress  (Ry/bohr**3)                   (kbar)     P= 1100.21
   0.00742772   0.00006697  -0.00000781       1092.66      9.85     -1.15
   0.00006697   0.00750505   0.00000451          9.85   1104.03      0.66
  -0.00000781   0.00000451   0.00750452         -1.15      0.66   1103.95


     number of scf cycles    =  10
     number of bfgs steps    =   9

     enthalpy old            =    -138.2042120806 Ry
     enthalpy new            =    -138.2075235003 Ry

     CASE: enthalpy_new < enthalpy_old

     new trust radius        =       0.0261922753 bohr
     new conv_thr            =       0.0000002262 Ry

     new unit-cell volume =    191.90887 a.u.^3 (    28.43796 Ang^3 )

CELL_PARAMETERS (alat=  5.86000000)
   1.007717984   0.145414162   0.076059651
  -0.377926634   0.945416455  -0.076059651
   0.164524546  -0.094988291   0.964482676

ATOMIC_POSITIONS (crystal)
Ca      -0.000083847   0.000083847   0.006366497
O        0.314299848   0.685700152   0.322859789
O        0.684660271   0.315339729   0.697348795
H        0.483102993   0.516897007   0.734838556
H        0.518020736   0.481979264   0.248586363



     Writing output data file CaOH2_ambient.save
     NEW-OLD atomic charge density approx. for the potential
     NEW k-points: (use verbosity='high' to print them)
     extrapolated charge   24.03025, renormalised to   24.00000

     total cpu time spent up to now is     4056.9 secs

     per-process dynamical memory:    17.6 Mb

     Self-consistent Calculation

     iteration #  1     ecut=   100.00 Ry     beta=0.30
     Davidson diagonalization with overlap
     ethr =  1.00E-06,  avg # of iterations =  5.0

     total cpu time spent up to now is     4105.7 secs

     total energy              =    -139.64330057 Ry
     Harris-Foulkes estimate   =    -139.62957808 Ry
     estimated scf accuracy    <       0.00034305 Ry

     iteration #  2     ecut=   100.00 Ry     beta=0.30
     Davidson diagonalization with overlap
     ethr =  1.43E-06,  avg # of iterations =  2.0

     total cpu time spent up to now is     4132.7 secs

     total energy              =    -139.64330963 Ry
     Harris-Foulkes estimate   =    -139.64335076 Ry
     estimated scf accuracy    <       0.00019912 Ry

     iteration #  3     ecut=   100.00 Ry     beta=0.30
     Davidson diagonalization with overlap
     ethr =  8.30E-07,  avg # of iterations =  1.0

     total cpu time spent up to now is     4153.5 secs

     total energy              =    -139.64325099 Ry
     Harris-Foulkes estimate   =    -139.64331248 Ry
     estimated scf accuracy    <       0.00010522 Ry

     iteration #  4     ecut=   100.00 Ry     beta=0.30
     Davidson diagonalization with overlap
     ethr =  4.38E-07,  avg # of iterations =  2.1

     total cpu time spent up to now is     4181.1 secs

     total energy              =    -139.64327149 Ry
     Harris-Foulkes estimate   =    -139.64327228 Ry
     estimated scf accuracy    <       0.00000509 Ry

     iteration #  5     ecut=   100.00 Ry     beta=0.30
     Davidson diagonalization with overlap
     ethr =  2.12E-08,  avg # of iterations =  1.6

     total cpu time spent up to now is     4202.5 secs

     total energy              =    -139.64327033 Ry
     Harris-Foulkes estimate   =    -139.64327171 Ry
     estimated scf accuracy    <       0.00000286 Ry

     iteration #  6     ecut=   100.00 Ry     beta=0.30
     Davidson diagonalization with overlap
     ethr =  1.19E-08,  avg # of iterations =  2.0

     total cpu time spent up to now is     4230.4 secs

     total energy              =    -139.64327109 Ry
     Harris-Foulkes estimate   =    -139.64327114 Ry
     estimated scf accuracy    <       0.00000040 Ry

     iteration #  7     ecut=   100.00 Ry     beta=0.30
     Davidson diagonalization with overlap
     ethr =  1.65E-09,  avg # of iterations =  1.0

     total cpu time spent up to now is     4252.4 secs

     total energy              =    -139.64327096 Ry
     Harris-Foulkes estimate   =    -139.64327110 Ry
     estimated scf accuracy    <       0.00000026 Ry

     iteration #  8     ecut=   100.00 Ry     beta=0.30
     Davidson diagonalization with overlap
     ethr =  1.10E-09,  avg # of iterations =  2.0

     total cpu time spent up to now is     4280.4 secs

     End of self-consistent calculation

     Number of k-points >= 100: set verbosity='high' to print the bands.

!    total energy              =    -139.64327102 Ry
     Harris-Foulkes estimate   =    -139.64327103 Ry
     estimated scf accuracy    <       0.00000001 Ry

     The total energy is the sum of the following terms:

     one-electron contribution =     -11.96943734 Ry
     hartree contribution      =      22.88930379 Ry
     xc contribution           =     -26.76279264 Ry
     ewald contribution        =    -123.80034483 Ry

     convergence has been achieved in   8 iterations

     Forces acting on atoms (Ry/au):

     atom    1 type  3   force =    -0.00037446    0.00021619    0.00331065
     atom    2 type  2   force =    -0.00273550    0.00157934   -0.00216591
     atom    3 type  2   force =     0.00106249   -0.00061343    0.00967226
     atom    4 type  1   force =     0.00604963   -0.00349275   -0.01704631
     atom    5 type  1   force =    -0.00400216    0.00231065    0.00622931

     Total force =     0.022812     Total SCF correction =     0.000101


     entering subroutine stress ...

          total   stress  (Ry/bohr**3)                   (kbar)     P= 1102.60
   0.00757035  -0.00011238   0.00004910       1113.64    -16.53      7.22
  -0.00011238   0.00744059  -0.00002835        -16.53   1094.55     -4.17
   0.00004910  -0.00002835   0.00747507          7.22     -4.17   1099.62


     number of scf cycles    =  11
     number of bfgs steps    =  10

     enthalpy old            =    -138.2075235003 Ry
     enthalpy new            =    -138.2082438286 Ry

     CASE: enthalpy_new < enthalpy_old

     new trust radius        =       0.0175041684 bohr
     new conv_thr            =       0.0000000720 Ry

     new unit-cell volume =    191.88952 a.u.^3 (    28.43509 Ang^3 )

CELL_PARAMETERS (alat=  5.86000000)
   1.008387639   0.144512725   0.076906938
  -0.379042128   0.945545674  -0.076906938
   0.165203222  -0.095380124   0.964092158

ATOMIC_POSITIONS (crystal)
Ca      -0.000231420   0.000231420   0.006989030
O        0.314124980   0.685875020   0.321209419
O        0.684638385   0.315361615   0.700397481
H        0.484538505   0.515461495   0.732220465
H        0.516929551   0.483070449   0.249183604



     Writing output data file CaOH2_ambient.save
     NEW-OLD atomic charge density approx. for the potential
     NEW k-points: (use verbosity='high' to print them)
     extrapolated charge   23.99778, renormalised to   24.00000

     total cpu time spent up to now is     4371.6 secs

     per-process dynamical memory:    17.6 Mb

     Self-consistent Calculation

     iteration #  1     ecut=   100.00 Ry     beta=0.30
     Davidson diagonalization with overlap
     ethr =  1.00E-06,  avg # of iterations =  4.2

     total cpu time spent up to now is     4417.5 secs

     total energy              =    -139.64367324 Ry
     Harris-Foulkes estimate   =    -139.64470957 Ry
     estimated scf accuracy    <       0.00009471 Ry

     iteration #  2     ecut=   100.00 Ry     beta=0.30
     Davidson diagonalization with overlap
     ethr =  3.95E-07,  avg # of iterations =  1.0

     total cpu time spent up to now is     4438.2 secs

     total energy              =    -139.64365032 Ry
     Harris-Foulkes estimate   =    -139.64367477 Ry
     estimated scf accuracy    <       0.00005388 Ry

     iteration #  3     ecut=   100.00 Ry     beta=0.30
     Davidson diagonalization with overlap
     ethr =  2.24E-07,  avg # of iterations =  2.0

     total cpu time spent up to now is     4464.0 secs

     total energy              =    -139.64365638 Ry
     Harris-Foulkes estimate   =    -139.64365700 Ry
     estimated scf accuracy    <       0.00000218 Ry

     iteration #  4     ecut=   100.00 Ry     beta=0.30
     Davidson diagonalization with overlap
     ethr =  9.08E-09,  avg # of iterations =  1.9

     total cpu time spent up to now is     4486.3 secs

     total energy              =    -139.64365624 Ry
     Harris-Foulkes estimate   =    -139.64365652 Ry
     estimated scf accuracy    <       0.00000068 Ry

     iteration #  5     ecut=   100.00 Ry     beta=0.30
     Davidson diagonalization with overlap
     ethr =  2.82E-09,  avg # of iterations =  2.0

     total cpu time spent up to now is     4512.9 secs

     total energy              =    -139.64365635 Ry
     Harris-Foulkes estimate   =    -139.64365638 Ry
     estimated scf accuracy    <       0.00000009 Ry

     iteration #  6     ecut=   100.00 Ry     beta=0.30
     Davidson diagonalization with overlap
     ethr =  3.68E-10,  avg # of iterations =  2.0

     total cpu time spent up to now is     4535.7 secs

     End of self-consistent calculation

     Number of k-points >= 100: set verbosity='high' to print the bands.

!    total energy              =    -139.64365635 Ry
     Harris-Foulkes estimate   =    -139.64365636 Ry
     estimated scf accuracy    <       0.00000003 Ry

     The total energy is the sum of the following terms:

     one-electron contribution =     -12.06314223 Ry
     hartree contribution      =      22.93350908 Ry
     xc contribution           =     -26.76858112 Ry
     ewald contribution        =    -123.74544209 Ry

     convergence has been achieved in   6 iterations

     Forces acting on atoms (Ry/au):

     atom    1 type  3   force =    -0.00013873    0.00008010    0.00317835
     atom    2 type  2   force =    -0.00804502    0.00464480    0.00465819
     atom    3 type  2   force =     0.00603928   -0.00348678    0.00386679
     atom    4 type  1   force =     0.00279376   -0.00161298   -0.01602820
     atom    5 type  1   force =    -0.00064929    0.00037487    0.00432487

     Total force =     0.021640     Total SCF correction =     0.000124


     entering subroutine stress ...

          total   stress  (Ry/bohr**3)                   (kbar)     P= 1108.34
   0.00761810  -0.00012913   0.00000483       1120.66    -19.00      0.71
  -0.00012913   0.00746899  -0.00000279        -19.00   1098.73     -0.41
   0.00000483  -0.00000279   0.00751592          0.71     -0.41   1105.63


     number of scf cycles    =  12
     number of bfgs steps    =  11

     enthalpy old            =    -138.2082438286 Ry
     enthalpy new            =    -138.2087738088 Ry

     CASE: enthalpy_new < enthalpy_old

     new trust radius        =       0.0262494050 bohr
     new conv_thr            =       0.0000000530 Ry

     new unit-cell volume =    192.14369 a.u.^3 (    28.47276 Ang^3 )

CELL_PARAMETERS (alat=  5.86000000)
   1.010469688   0.142851480   0.077045299
  -0.381521834   0.946518160  -0.077045299
   0.164430127  -0.094933778   0.962725401

ATOMIC_POSITIONS (crystal)
Ca      -0.000379759   0.000379759   0.007802293
O        0.313663989   0.686336011   0.320366185
O        0.684820020   0.315179980   0.703230179
[...]

     iteration #  6     ecut=   100.00 Ry     beta=0.30
     Davidson diagonalization with overlap
     ethr =  2.20E-10,  avg # of iterations =  2.0

     total cpu time spent up to now is    12677.1 secs

     total energy              =    -139.65139031 Ry
     Harris-Foulkes estimate   =    -139.65139031 Ry
     estimated scf accuracy    <       0.00000001 Ry

     iteration #  7     ecut=   100.00 Ry     beta=0.30
     Davidson diagonalization with overlap
     ethr =  5.63E-11,  avg # of iterations =  1.0

     total cpu time spent up to now is    12697.7 secs

     total energy              =    -139.65139031 Ry
     Harris-Foulkes estimate   =    -139.65139031 Ry
     estimated scf accuracy    <       0.00000001 Ry

     iteration #  8     ecut=   100.00 Ry     beta=0.30
     Davidson diagonalization with overlap
     ethr =  4.28E-11,  avg # of iterations =  2.0

     total cpu time spent up to now is    12725.2 secs

     End of self-consistent calculation

     Number of k-points >= 100: set verbosity='high' to print the bands.

!    total energy              =    -139.65139031 Ry
     Harris-Foulkes estimate   =    -139.65139031 Ry
     estimated scf accuracy    <          7.3E-10 Ry

     The total energy is the sum of the following terms:

     one-electron contribution =      -9.80073197 Ry
     hartree contribution      =      22.08260697 Ry
     xc contribution           =     -26.76339619 Ry
     ewald contribution        =    -125.16986912 Ry

     convergence has been achieved in   8 iterations

     Forces acting on atoms (Ry/au):

     atom    1 type  3   force =     0.00044875   -0.00025908   -0.00075304
     atom    2 type  2   force =     0.00025116   -0.00014501    0.00022276
     atom    3 type  2   force =    -0.00015035    0.00008680    0.00048659
     atom    4 type  1   force =    -0.00027787    0.00016043    0.00003395
     atom    5 type  1   force =    -0.00027168    0.00015686    0.00000975

     Total force =     0.001200     Total SCF correction =     0.000027


     entering subroutine stress ...

          total   stress  (Ry/bohr**3)                   (kbar)     P= 1100.46
   0.00748197  -0.00000173   0.00000052       1100.64     -0.25      0.08
  -0.00000173   0.00747998  -0.00000030         -0.25   1100.34     -0.04
   0.00000052  -0.00000030   0.00748029          0.08     -0.04   1100.39


     number of scf cycles    =  38
     number of bfgs steps    =  37

     enthalpy old            =    -138.2485755562 Ry
     enthalpy new            =    -138.2485865953 Ry

     CASE: enthalpy_new < enthalpy_old

     new trust radius        =       0.0013564324 bohr
     new conv_thr            =       0.0000000100 Ry

     new unit-cell volume =    187.63116 a.u.^3 (    27.80407 Ang^3 )

CELL_PARAMETERS (alat=  5.86000000)
   0.920836969   0.198924639   0.097783002
  -0.288144694   0.896930528  -0.097783002
   0.234090821  -0.135152398   1.093542381

ATOMIC_POSITIONS (crystal)
Ca      -0.000321218   0.000321218   0.102001941
O        0.316151067   0.683848933   0.428373313
O        0.683904812   0.316095188   0.775058213
H        0.500474739   0.499525261   0.602252766
H        0.499790601   0.500209399   0.102313766



     Writing output data file CaOH2_ambient.save
     NEW-OLD atomic charge density approx. for the potential
     NEW k-points: (use verbosity='high' to print them)
     extrapolated charge   24.00370, renormalised to   24.00000

     total cpu time spent up to now is    12815.7 secs

     per-process dynamical memory:    17.6 Mb

     Self-consistent Calculation

     iteration #  1     ecut=   100.00 Ry     beta=0.30
     Davidson diagonalization with overlap
     ethr =  1.00E-06,  avg # of iterations =  2.0

     Threshold (ethr) on eigenvalues was too large:
     Diagonalizing with lowered threshold

     Davidson diagonalization with overlap
     ethr =  3.50E-09,  avg # of iterations =  3.0

     total cpu time spent up to now is    12875.6 secs

     total energy              =    -139.65162708 Ry
     Harris-Foulkes estimate   =    -139.65018250 Ry
     estimated scf accuracy    <       0.00000106 Ry

     iteration #  2     ecut=   100.00 Ry     beta=0.30
     Davidson diagonalization with overlap
     ethr =  4.41E-09,  avg # of iterations =  3.0

     total cpu time spent up to now is    12908.3 secs

     total energy              =    -139.65162765 Ry
     Harris-Foulkes estimate   =    -139.65162772 Ry
     estimated scf accuracy    <       0.00000059 Ry

     iteration #  3     ecut=   100.00 Ry     beta=0.30
     Davidson diagonalization with overlap
     ethr =  2.48E-09,  avg # of iterations =  1.0

     total cpu time spent up to now is    12928.9 secs

     total energy              =    -139.65162745 Ry
     Harris-Foulkes estimate   =    -139.65162766 Ry
     estimated scf accuracy    <       0.00000040 Ry

     iteration #  4     ecut=   100.00 Ry     beta=0.30
     Davidson diagonalization with overlap
     ethr =  1.66E-09,  avg # of iterations =  2.0

     total cpu time spent up to now is    12956.3 secs

     total energy              =    -139.65162753 Ry
     Harris-Foulkes estimate   =    -139.65162755 Ry
     estimated scf accuracy    <       0.00000005 Ry

     iteration #  5     ecut=   100.00 Ry     beta=0.30
     Davidson diagonalization with overlap
     ethr =  2.05E-10,  avg # of iterations =  1.1

     total cpu time spent up to now is    12977.0 secs

     total energy              =    -139.65162752 Ry
     Harris-Foulkes estimate   =    -139.65162754 Ry
     estimated scf accuracy    <       0.00000002 Ry

     iteration #  6     ecut=   100.00 Ry     beta=0.30
     Davidson diagonalization with overlap
     ethr =  8.54E-11,  avg # of iterations =  2.0

     total cpu time spent up to now is    13005.0 secs

     End of self-consistent calculation

     Number of k-points >= 100: set verbosity='high' to print the bands.

!    total energy              =    -139.65162753 Ry
     Harris-Foulkes estimate   =    -139.65162753 Ry
     estimated scf accuracy    <          2.0E-09 Ry

     The total energy is the sum of the following terms:

     one-electron contribution =      -9.81582121 Ry
     hartree contribution      =      22.08774122 Ry
     xc contribution           =     -26.76344603 Ry
     ewald contribution        =    -125.16010151 Ry

     convergence has been achieved in   6 iterations

     Forces acting on atoms (Ry/au):

     atom    1 type  3   force =     0.00049118   -0.00028358   -0.00050381
     atom    2 type  2   force =    -0.00034356    0.00019835    0.00015797
     atom    3 type  2   force =     0.00006939   -0.00004006    0.00031546
     atom    4 type  1   force =    -0.00016046    0.00009264    0.00004089
     atom    5 type  1   force =    -0.00005655    0.00003265   -0.00001051

     Total force =     0.000951     Total SCF correction =     0.000057


     entering subroutine stress ...

          total   stress  (Ry/bohr**3)                   (kbar)     P= 1100.20
   0.00747955  -0.00000107   0.00000102       1100.28     -0.16      0.15
  -0.00000107   0.00747831  -0.00000059         -0.16   1100.10     -0.09
   0.00000102  -0.00000059   0.00747925          0.15     -0.09   1100.24


     bfgs converged in  39 scf cycles and  38 bfgs steps
     (criteria: energy < 0.10E-03, force < 0.10E-02, cell < 0.50E+00)

     End of BFGS Geometry Optimization

     Final enthalpy =    -138.2485875365 Ry
Begin final coordinates
     new unit-cell volume =    187.63116 a.u.^3 (    27.80407 Ang^3 )

CELL_PARAMETERS (alat=  5.86000000)
   0.920836969   0.198924639   0.097783002
  -0.288144694   0.896930528  -0.097783002
   0.234090821  -0.135152398   1.093542381

ATOMIC_POSITIONS (crystal)
Ca      -0.000321218   0.000321218   0.102001941
O        0.316151067   0.683848933   0.428373313
O        0.683904812   0.316095188   0.775058213
H        0.500474739   0.499525261   0.602252766
H        0.499790601   0.500209399   0.102313766
End final coordinates



     A final scf calculation at the relaxed structure.
     The G-vectors are recalculated for the final unit cell
     Results may differ from those at the preceding step.

     G-vector sticks info
     --------------------
     sticks:   dense  smooth     PW     G-vecs:    dense   smooth      PW
     Sum         775     775    307                18117    18117    4539



     bravais-lattice index     =            4
     lattice parameter (alat)  =       5.8600  a.u.
     unit-cell volume          =     187.6312 (a.u.)^3
     number of atoms/cell      =            5
     number of atomic types    =            3
     number of electrons       =        24.00
     number of Kohn-Sham states=           12
     kinetic-energy cutoff     =     100.0000  Ry
     charge density cutoff     =     320.0000  Ry
     convergence threshold     =      1.0E-08
     mixing beta               =       0.3000
     number of iterations used =           16  local-TF  mixing
     Exchange-correlation      = PBE ( 1 4 3 4 0)
     EXX-fraction              =        0.00

     celldm(1)=   5.860000  celldm(2)=   0.000000  celldm(3)=   1.332000
     celldm(4)=   0.000000  celldm(5)=   0.000000  celldm(6)=   0.000000

     crystal axes: (cart. coord. in units of alat)
               a(1) = (   0.920837   0.198925   0.097783 )  
               a(2) = (  -0.288145   0.896931  -0.097783 )  
               a(3) = (   0.234091  -0.135152   1.093542 )  

     reciprocal axes: (cart. coord. in units 2 pi/alat)
               b(1) = (  1.037746  0.313387 -0.183415 )  
               b(2) = ( -0.247472  1.055407  0.183415 )  
               b(3) = ( -0.114922  0.066350  0.947261 )  


     PseudoPot. # 1 for H  read from file:
     /home/ilia/espresso/pseudo/H.pbe-sp-mt.ncpp
     MD5 check sum: 7a641936b52ccecd26bd1ad87cca5aed
     Pseudo is Norm-conserving, Zval =  1.0
     Generated by old ld1 code (numerical format)
     Using radial grid of 1076 points,  0 beta functions with: 

     PseudoPot. # 2 for O  read from file:
     /home/ilia/espresso/pseudo/O.pbe-sp-mt.ncpp
     MD5 check sum: 8a3d23d410d2f3ebfd0a39faacc72cbb
     Pseudo is Norm-conserving, Zval =  6.0
     Generated by old ld1 code (numerical format)
     Using radial grid of 1130 points,  1 beta functions with: 
                l(1) =   1

     PseudoPot. # 3 for Ca read from file:
     /home/ilia/espresso/pseudo/Ca.pbe-sp-mt_ion2.ncpp
     MD5 check sum: 4bcd670d05521f7b178fdf0a334578ab
     Pseudo is Norm-conserving, Zval = 10.0
     Generated by old ld1 code (numerical format)
     Using radial grid of 1153 points,  1 beta functions with: 
                l(1) =   1

     atomic species   valence    mass     pseudopotential
        H              1.00     1.00700     H ( 1.00)
        O              6.00    16.00000     O ( 1.00)
        Ca            10.00    40.07800     Ca( 1.00)

      2 Sym. Ops. (no inversion) found



   Cartesian axes

     site n.     atom                  positions (alat units)
         1           Ca  tau(   1) = (   0.0234894  -0.0135616   0.1114806  )
         2           O   tau(   2) = (   0.1943544   0.6183595   0.4324898  )
         3           O   tau(   3) = (   0.7201177   0.3148100   0.8835245  )
         4           H   tau(   4) = (   0.4579019   0.4662003   0.6586818  )
         5           H   tau(   5) = (   0.3400437   0.5342458   0.1118435  )

     number of k points=   171

     Number of k-points >= 100: set verbosity='high' to print them.

     Dense  grid:    18117 G-vectors     FFT dimensions: (  32,  32,  40)

     Largest allocated arrays     est. size (Mb)     dimensions
        Kohn-Sham Wavefunctions         0.58 Mb     (   3185,   12)
        NL pseudopotentials             0.44 Mb     (   3185,    9)
        Each V/rho on FFT grid          0.62 Mb     (  40960)
        Each G-vector array             0.14 Mb     (  18117)
        G-vector shells                 0.04 Mb     (   4695)
     Largest temporary arrays     est. size (Mb)     dimensions
        Auxiliary wavefunctions         2.33 Mb     (   3185,   48)
        Each subspace H/S matrix        0.04 Mb     (  48,  48)
        Each <psi_i|beta_j> matrix      0.00 Mb     (      9,   12)
        Arrays for rho mixing          10.00 Mb     (  40960,  16)

     Initial potential from superposition of free atoms

     starting charge   21.99998, renormalised to   24.00000
     Starting wfc are   14 randomized atomic wfcs

     Writing output data file CaOH2_ambient.save

     total cpu time spent up to now is    13073.4 secs

     per-process dynamical memory:    10.0 Mb

     Self-consistent Calculation

     iteration #  1     ecut=   100.00 Ry     beta=0.30
     Davidson diagonalization with overlap
     ethr =  1.00E-06,  avg # of iterations =  5.9

     total cpu time spent up to now is    13120.9 secs

     total energy              =    -139.81785805 Ry
     Harris-Foulkes estimate   =    -139.90692114 Ry
     estimated scf accuracy    <       0.47898597 Ry

     iteration #  2     ecut=   100.00 Ry     beta=0.30
     Davidson diagonalization with overlap
     ethr =  2.00E-03,  avg # of iterations =  1.0

     total cpu time spent up to now is    13136.4 secs

     total energy              =    -139.61046229 Ry
     Harris-Foulkes estimate   =    -139.82181741 Ry
     estimated scf accuracy    <       0.30803585 Ry

     iteration #  3     ecut=   100.00 Ry     beta=0.30
     Davidson diagonalization with overlap
     ethr =  1.28E-03,  avg # of iterations =  2.0

     total cpu time spent up to now is    13156.0 secs

     total energy              =    -139.66837104 Ry
     Harris-Foulkes estimate   =    -139.67075269 Ry
     estimated scf accuracy    <       0.01425134 Ry

     iteration #  4     ecut=   100.00 Ry     beta=0.30
     Davidson diagonalization with overlap
     ethr =  5.94E-05,  avg # of iterations =  1.5

     total cpu time spent up to now is    13170.2 secs

     total energy              =    -139.66772146 Ry
     Harris-Foulkes estimate   =    -139.66909061 Ry
     estimated scf accuracy    <       0.00337735 Ry

     iteration #  5     ecut=   100.00 Ry     beta=0.30
     Davidson diagonalization with overlap
     ethr =  1.41E-05,  avg # of iterations =  2.0

     total cpu time spent up to now is    13187.3 secs

     total energy              =    -139.66816709 Ry
     Harris-Foulkes estimate   =    -139.66819861 Ry
     estimated scf accuracy    <       0.00056646 Ry

     iteration #  6     ecut=   100.00 Ry     beta=0.30
     Davidson diagonalization with overlap
     ethr =  2.36E-06,  avg # of iterations =  1.0

     total cpu time spent up to now is    13200.9 secs

     total energy              =    -139.66793461 Ry
     Harris-Foulkes estimate   =    -139.66817229 Ry
     estimated scf accuracy    <       0.00046875 Ry

     iteration #  7     ecut=   100.00 Ry     beta=0.30
     Davidson diagonalization with overlap
     ethr =  1.95E-06,  avg # of iterations =  2.1

     total cpu time spent up to now is    13219.5 secs

     total energy              =    -139.66807590 Ry
     Harris-Foulkes estimate   =    -139.66808241 Ry
     estimated scf accuracy    <       0.00005587 Ry

     iteration #  8     ecut=   100.00 Ry     beta=0.30
     Davidson diagonalization with overlap
     ethr =  2.33E-07,  avg # of iterations =  1.1

     total cpu time spent up to now is    13233.2 secs

     total energy              =    -139.66805698 Ry
     Harris-Foulkes estimate   =    -139.66807755 Ry
     estimated scf accuracy    <       0.00004011 Ry

     iteration #  9     ecut=   100.00 Ry     beta=0.30
     Davidson diagonalization with overlap
     ethr =  1.67E-07,  avg # of iterations =  2.0

     total cpu time spent up to now is    13251.7 secs

     total energy              =    -139.66806486 Ry
     Harris-Foulkes estimate   =    -139.66806482 Ry
     estimated scf accuracy    <       0.00000037 Ry

     iteration # 10     ecut=   100.00 Ry     beta=0.30
     Davidson diagonalization with overlap
     ethr =  1.52E-09,  avg # of iterations =  2.9

     total cpu time spent up to now is    13272.9 secs

     total energy              =    -139.66806491 Ry
     Harris-Foulkes estimate   =    -139.66806498 Ry
     estimated scf accuracy    <       0.00000017 Ry

     iteration # 11     ecut=   100.00 Ry     beta=0.30
     Davidson diagonalization with overlap
     ethr =  7.20E-10,  avg # of iterations =  2.0

     total cpu time spent up to now is    13290.8 secs

     End of self-consistent calculation

     Number of k-points >= 100: set verbosity='high' to print the bands.

!    total energy              =    -139.66806494 Ry
     Harris-Foulkes estimate   =    -139.66806494 Ry
     estimated scf accuracy    <          3.3E-09 Ry

     The total energy is the sum of the following terms:

     one-electron contribution =      -9.84380385 Ry
     hartree contribution      =      22.10032372 Ry
     xc contribution           =     -26.76448333 Ry
     ewald contribution        =    -125.16010148 Ry

     convergence has been achieved in  11 iterations

     Forces acting on atoms (Ry/au):

     atom    1 type  3   force =     0.00049028   -0.00028306   -0.00068096
     atom    2 type  2   force =     0.00082485   -0.00047623    0.00078927
     atom    3 type  2   force =    -0.00108913    0.00062881    0.00010080
     atom    4 type  1   force =    -0.00016911    0.00009763   -0.00007605
     atom    5 type  1   force =    -0.00005689    0.00003284   -0.00013306

     Total force =     0.001993     Total SCF correction =     0.000090


     entering subroutine stress ...

          total   stress  (Ry/bohr**3)                   (kbar)     P= 1172.54
   0.00786730   0.00054976   0.00006059       1157.32     80.87      8.91
   0.00054976   0.00850210  -0.00003498         80.87   1250.70     -5.15
   0.00006059  -0.00003498   0.00754298          8.91     -5.15   1109.61


     Writing output data file CaOH2_ambient.save

     init_run     :     62.80s CPU     63.25s WALL (       2 calls)
     electrons    :   9561.58s CPU   9750.33s WALL (      40 calls)
     update_pot   :   1505.95s CPU   1522.27s WALL (      38 calls)
     forces       :    552.51s CPU    555.34s WALL (      40 calls)
     stress       :   1396.94s CPU   1401.49s WALL (      40 calls)

     Called by init_run:
     wfcinit      :     25.50s CPU     25.77s WALL (       2 calls)
     potinit      :     15.68s CPU     15.75s WALL (       2 calls)

     Called by electrons:
     c_bands      :   8292.19s CPU   8447.27s WALL (     346 calls)
     sum_band     :   1209.06s CPU   1240.47s WALL (     346 calls)
     v_of_rho     :     34.10s CPU     34.88s WALL (     384 calls)
     mix_rho      :     28.35s CPU     29.48s WALL (     346 calls)

     Called by c_bands:
     init_us_2    :    347.80s CPU    378.99s WALL (  132354 calls)
     cegterg      :   8099.40s CPU   8140.29s WALL (   59166 calls)

     Called by *egterg:
     h_psi        :   5876.19s CPU   5899.09s WALL (  192950 calls)
     g_psi        :     74.99s CPU     75.71s WALL (  133442 calls)
     cdiaghg      :     93.01s CPU     93.87s WALL (  185768 calls)

     Called by h_psi:
     add_vuspsi   :    202.54s CPU    203.40s WALL (  192950 calls)

     General routines
     calbec       :    223.14s CPU    224.61s WALL (  206630 calls)
     fft          :      8.42s CPU      8.47s WALL (    4546 calls)
     ffts         :     11.32s CPU     11.33s WALL (    6314 calls)
     fftw         :   5636.85s CPU   5655.92s WALL ( 4618072 calls)
     davcio       :     45.88s CPU    152.42s WALL (  191520 calls)


     PWSCF        :     3h38m CPU        3h41m WALL


   This run was terminated on:   9: 5:53  24Apr2014            

=------------------------------------------------------------------------------=
   JOB DONE.
=------------------------------------------------------------------------------=
