
     Program PWSCF v.5.0.2 (svn rev. 9392) starts on 25Apr2014 at  8:58: 8 

     This program is part of the open-source Quantum ESPRESSO suite
     for quantum simulation of materials; please cite
         "P. Giannozzi et al., J. Phys.:Condens. Matter 21 395502 (2009);
          URL http://www.quantum-espresso.org", 
     in publications or presentations arising from this work. More details at
     http://www.quantum-espresso.org/quote.php

     Serial version

     Current dimensions of program PWSCF are:
     Max number of different atomic species (ntypx) = 10
     Max number of k-points (npk) =  40000
     Max angular momentum in pseudopotentials (lmaxx) =  3
     Waiting for input...
     Reading input from standard input

     G-vector sticks info
     --------------------
     sticks:   dense  smooth     PW     G-vecs:    dense   smooth      PW
     Sum         757     757    283                22473    22473    5157



     bravais-lattice index     =            4
     lattice parameter (alat)  =       5.8600  a.u.
     unit-cell volume          =     232.1281 (a.u.)^3
     number of atoms/cell      =            5
     number of atomic types    =            3
     number of electrons       =        24.00
     number of Kohn-Sham states=           12
     kinetic-energy cutoff     =     100.0000  Ry
     charge density cutoff     =     320.0000  Ry
     convergence threshold     =      1.0E-06
     mixing beta               =       0.3000
     number of iterations used =           16  local-TF  mixing
     Exchange-correlation      = PBE ( 1 4 3 4 0)
     EXX-fraction              =        0.00
     nstep                     =           50


     celldm(1)=   5.860000  celldm(2)=   0.000000  celldm(3)=   1.332000
     celldm(4)=   0.000000  celldm(5)=   0.000000  celldm(6)=   0.000000

     crystal axes: (cart. coord. in units of alat)
               a(1) = (   1.000000   0.000000   0.000000 )  
               a(2) = (  -0.500000   0.866025   0.000000 )  
               a(3) = (   0.000000   0.000000   1.332000 )  

     reciprocal axes: (cart. coord. in units 2 pi/alat)
               b(1) = (  1.000000  0.577350 -0.000000 )  
               b(2) = (  0.000000  1.154701  0.000000 )  
               b(3) = (  0.000000 -0.000000  0.750751 )  


     PseudoPot. # 1 for H  read from file:
     /home/ilia/espresso/pseudo/H.pbe-sp-mt.ncpp
     MD5 check sum: 7a641936b52ccecd26bd1ad87cca5aed
     Pseudo is Norm-conserving, Zval =  1.0
     Generated by old ld1 code (numerical format)
     Using radial grid of 1076 points,  0 beta functions with: 

     PseudoPot. # 2 for O  read from file:
     /home/ilia/espresso/pseudo/O.pbe-sp-mt.ncpp
     MD5 check sum: 8a3d23d410d2f3ebfd0a39faacc72cbb
     Pseudo is Norm-conserving, Zval =  6.0
     Generated by old ld1 code (numerical format)
     Using radial grid of 1130 points,  1 beta functions with: 
                l(1) =   1

     PseudoPot. # 3 for Ca read from file:
     /home/ilia/espresso/pseudo/Ca.pbe-sp-mt_ion2.ncpp
     MD5 check sum: 4bcd670d05521f7b178fdf0a334578ab
     Pseudo is Norm-conserving, Zval = 10.0
     Generated by old ld1 code (numerical format)
     Using radial grid of 1153 points,  1 beta functions with: 
                l(1) =   1

     atomic species   valence    mass     pseudopotential
        H              1.00     1.00700     H ( 1.00)
        O              6.00    16.00000     O ( 1.00)
        Ca            10.00    40.07800     Ca( 1.00)

      2 Sym. Ops. (no inversion) found



   Cartesian axes

     site n.     atom                  positions (alat units)
         1           Ca  tau(   1) = (   0.0000000   0.0000000   0.0000000  )
         2           O   tau(   2) = (   0.0000000   0.5773503   0.6287040  )
         3           O   tau(   3) = (   0.5000000   0.2886751   0.7166160  )
         4           H   tau(   4) = (   0.2500000   0.4330127   0.9430560  )
         5           H   tau(   5) = (   0.2500000   0.4330127   0.3889440  )

     number of k points=   171

     Number of k-points >= 100: set verbosity='high' to print them.

     Dense  grid:    22473 G-vectors     FFT dimensions: (  36,  36,  45)

     Largest allocated arrays     est. size (Mb)     dimensions
        Kohn-Sham Wavefunctions         0.72 Mb     (   3953,   12)
        NL pseudopotentials             0.54 Mb     (   3953,    9)
        Each V/rho on FFT grid          0.89 Mb     (  58320)
        Each G-vector array             0.17 Mb     (  22473)
        G-vector shells                 0.17 Mb     (  22473)
     Largest temporary arrays     est. size (Mb)     dimensions
        Auxiliary wavefunctions         2.90 Mb     (   3953,   48)
        Each subspace H/S matrix        0.04 Mb     (  48,  48)
        Each <psi_i|beta_j> matrix      0.00 Mb     (      9,   12)
        Arrays for rho mixing          14.24 Mb     (  58320,  16)

     Initial potential from superposition of free atoms

     starting charge   21.99998, renormalised to   24.00000
     Starting wfc are   14 randomized atomic wfcs

     total cpu time spent up to now is       44.9 secs

     per-process dynamical memory:    14.1 Mb

     Self-consistent Calculation

     iteration #  1     ecut=   100.00 Ry     beta=0.30
     Davidson diagonalization with overlap
     ethr =  1.00E-02,  avg # of iterations =  4.1

     total cpu time spent up to now is       78.5 secs

     total energy              =    -139.04604779 Ry
     Harris-Foulkes estimate   =    -139.19520853 Ry
     estimated scf accuracy    <       0.76764974 Ry

     iteration #  2     ecut=   100.00 Ry     beta=0.30
     Davidson diagonalization with overlap
     ethr =  3.20E-03,  avg # of iterations =  1.5

     total cpu time spent up to now is       99.9 secs

     total energy              =    -138.81238727 Ry
     Harris-Foulkes estimate   =    -139.08442427 Ry
     estimated scf accuracy    <       0.45626081 Ry

     iteration #  3     ecut=   100.00 Ry     beta=0.30
     Davidson diagonalization with overlap
     ethr =  1.90E-03,  avg # of iterations =  3.4

     total cpu time spent up to now is      135.0 secs

     total energy              =    -138.97739731 Ry
     Harris-Foulkes estimate   =    -139.01456566 Ry
     estimated scf accuracy    <       0.28262335 Ry

     iteration #  4     ecut=   100.00 Ry     beta=0.30
     Davidson diagonalization with overlap
     ethr =  1.18E-03,  avg # of iterations =  1.0

     total cpu time spent up to now is      156.2 secs

     total energy              =    -138.91867837 Ry
     Harris-Foulkes estimate   =    -138.98181762 Ry
     estimated scf accuracy    <       0.17316922 Ry

     iteration #  5     ecut=   100.00 Ry     beta=0.30
     Davidson diagonalization with overlap
     ethr =  7.22E-04,  avg # of iterations =  2.8

     total cpu time spent up to now is      182.7 secs

     total energy              =    -138.94915033 Ry
     Harris-Foulkes estimate   =    -138.95012465 Ry
     estimated scf accuracy    <       0.00696325 Ry

     iteration #  6     ecut=   100.00 Ry     beta=0.30
     Davidson diagonalization with overlap
     ethr =  2.90E-05,  avg # of iterations =  2.8

     total cpu time spent up to now is      206.1 secs

     total energy              =    -138.95064046 Ry
     Harris-Foulkes estimate   =    -138.95148751 Ry
     estimated scf accuracy    <       0.00313543 Ry

     iteration #  7     ecut=   100.00 Ry     beta=0.30
     Davidson diagonalization with overlap
     ethr =  1.31E-05,  avg # of iterations =  3.7

     total cpu time spent up to now is      233.5 secs

     total energy              =    -138.95194852 Ry
     Harris-Foulkes estimate   =    -138.95186006 Ry
     estimated scf accuracy    <       0.00288823 Ry

     iteration #  8     ecut=   100.00 Ry     beta=0.30
     Davidson diagonalization with overlap
     ethr =  1.20E-05,  avg # of iterations =  1.0

     total cpu time spent up to now is      254.4 secs

     total energy              =    -138.95101230 Ry
     Harris-Foulkes estimate   =    -138.95197478 Ry
     estimated scf accuracy    <       0.00334134 Ry

     iteration #  9     ecut=   100.00 Ry     beta=0.30
     Davidson diagonalization with overlap
     ethr =  1.20E-05,  avg # of iterations =  3.0

     total cpu time spent up to now is      278.4 secs

     total energy              =    -138.95149264 Ry
     Harris-Foulkes estimate   =    -138.95151907 Ry
     estimated scf accuracy    <       0.00023478 Ry

     iteration # 10     ecut=   100.00 Ry     beta=0.30
     Davidson diagonalization with overlap
     ethr =  9.78E-07,  avg # of iterations =  2.8

     total cpu time spent up to now is      302.4 secs

     total energy              =    -138.95151954 Ry
     Harris-Foulkes estimate   =    -138.95152716 Ry
     estimated scf accuracy    <       0.00018343 Ry

     iteration # 11     ecut=   100.00 Ry     beta=0.30
     Davidson diagonalization with overlap
     ethr =  7.64E-07,  avg # of iterations =  1.0

     total cpu time spent up to now is      323.1 secs

     total energy              =    -138.95147085 Ry
     Harris-Foulkes estimate   =    -138.95152067 Ry
     estimated scf accuracy    <       0.00016055 Ry

     iteration # 12     ecut=   100.00 Ry     beta=0.30
     Davidson diagonalization with overlap
     ethr =  6.69E-07,  avg # of iterations =  3.8

     total cpu time spent up to now is      348.5 secs

     total energy              =    -138.95158602 Ry
     Harris-Foulkes estimate   =    -138.95158884 Ry
     estimated scf accuracy    <       0.00008812 Ry

     iteration # 13     ecut=   100.00 Ry     beta=0.30
     Davidson diagonalization with overlap
     ethr =  3.67E-07,  avg # of iterations =  1.0

     total cpu time spent up to now is      369.3 secs

     total energy              =    -138.95157252 Ry
     Harris-Foulkes estimate   =    -138.95158659 Ry
     estimated scf accuracy    <       0.00008138 Ry

     iteration # 14     ecut=   100.00 Ry     beta=0.30
     Davidson diagonalization with overlap
     ethr =  3.39E-07,  avg # of iterations =  2.2

     total cpu time spent up to now is      391.6 secs

     total energy              =    -138.95157721 Ry
     Harris-Foulkes estimate   =    -138.95157782 Ry
     estimated scf accuracy    <       0.00000643 Ry

     iteration # 15     ecut=   100.00 Ry     beta=0.30
     Davidson diagonalization with overlap
     ethr =  2.68E-08,  avg # of iterations =  3.5

     total cpu time spent up to now is      415.9 secs

     total energy              =    -138.95168819 Ry
     Harris-Foulkes estimate   =    -138.95168799 Ry
     estimated scf accuracy    <       0.00001236 Ry

     iteration # 16     ecut=   100.00 Ry     beta=0.30
     Davidson diagonalization with overlap
     ethr =  2.68E-08,  avg # of iterations =  1.0

     total cpu time spent up to now is      437.9 secs

     total energy              =    -138.95168662 Ry
     Harris-Foulkes estimate   =    -138.95168822 Ry
     estimated scf accuracy    <       0.00001251 Ry

     iteration # 17     ecut=   100.00 Ry     beta=0.30
     Davidson diagonalization with overlap
     ethr =  2.68E-08,  avg # of iterations =  3.3

     total cpu time spent up to now is      466.8 secs

     total energy              =    -138.95168789 Ry
     Harris-Foulkes estimate   =    -138.95168824 Ry
     estimated scf accuracy    <       0.00000704 Ry

     iteration # 18     ecut=   100.00 Ry     beta=0.30
     Davidson diagonalization with overlap
     ethr =  2.68E-08,  avg # of iterations =  1.0

     total cpu time spent up to now is      489.2 secs

     total energy              =    -138.95168753 Ry
     Harris-Foulkes estimate   =    -138.95168795 Ry
     estimated scf accuracy    <       0.00000604 Ry

     iteration # 19     ecut=   100.00 Ry     beta=0.30
     Davidson diagonalization with overlap
     ethr =  2.52E-08,  avg # of iterations =  2.4

     total cpu time spent up to now is      511.7 secs

     total energy              =    -138.95168795 Ry
     Harris-Foulkes estimate   =    -138.95168817 Ry
     estimated scf accuracy    <       0.00000803 Ry

     iteration # 20     ecut=   100.00 Ry     beta=0.30
     Davidson diagonalization with overlap
     ethr =  2.52E-08,  avg # of iterations =  1.0

     total cpu time spent up to now is      533.7 secs

     total energy              =    -138.95168788 Ry
     Harris-Foulkes estimate   =    -138.95168798 Ry
     estimated scf accuracy    <       0.00000744 Ry

     iteration # 21     ecut=   100.00 Ry     beta=0.30
     Davidson diagonalization with overlap
     ethr =  2.52E-08,  avg # of iterations =  1.0

     total cpu time spent up to now is      555.0 secs

     total energy              =    -138.95168778 Ry
     Harris-Foulkes estimate   =    -138.95168789 Ry
     estimated scf accuracy    <       0.00000709 Ry

     iteration # 22     ecut=   100.00 Ry     beta=0.30
     Davidson diagonalization with overlap
     ethr =  2.52E-08,  avg # of iterations =  1.0

     total cpu time spent up to now is      576.1 secs

     total energy              =    -138.95168770 Ry
     Harris-Foulkes estimate   =    -138.95168779 Ry
     estimated scf accuracy    <       0.00000673 Ry

     iteration # 23     ecut=   100.00 Ry     beta=0.30
     Davidson diagonalization with overlap
     ethr =  2.52E-08,  avg # of iterations =  1.0

     total cpu time spent up to now is      598.7 secs

     total energy              =    -138.95168783 Ry
     Harris-Foulkes estimate   =    -138.95168770 Ry
     estimated scf accuracy    <       0.00000644 Ry

     iteration # 24     ecut=   100.00 Ry     beta=0.30
     Davidson diagonalization with overlap
     ethr =  2.52E-08,  avg # of iterations =  1.0

     total cpu time spent up to now is      623.1 secs

     total energy              =    -138.95168768 Ry
     Harris-Foulkes estimate   =    -138.95168784 Ry
     estimated scf accuracy    <       0.00000676 Ry

     iteration # 25     ecut=   100.00 Ry     beta=0.30
     Davidson diagonalization with overlap
     ethr =  2.52E-08,  avg # of iterations =  1.0

     total cpu time spent up to now is      644.0 secs

     total energy              =    -138.95168740 Ry
     Harris-Foulkes estimate   =    -138.95168768 Ry
     estimated scf accuracy    <       0.00000628 Ry

     iteration # 26     ecut=   100.00 Ry     beta=0.30
     Davidson diagonalization with overlap
     ethr =  2.52E-08,  avg # of iterations =  1.0

     total cpu time spent up to now is      664.7 secs

     total energy              =    -138.95168720 Ry
     Harris-Foulkes estimate   =    -138.95168741 Ry
     estimated scf accuracy    <       0.00000546 Ry

     iteration # 27     ecut=   100.00 Ry     beta=0.30
     Davidson diagonalization with overlap
     ethr =  2.28E-08,  avg # of iterations =  1.0

     total cpu time spent up to now is      685.4 secs

     total energy              =    -138.95168728 Ry
     Harris-Foulkes estimate   =    -138.95168721 Ry
     estimated scf accuracy    <       0.00000481 Ry

     iteration # 28     ecut=   100.00 Ry     beta=0.30
     Davidson diagonalization with overlap
     ethr =  2.00E-08,  avg # of iterations =  1.0

     total cpu time spent up to now is      706.1 secs

     total energy              =    -138.95168718 Ry
     Harris-Foulkes estimate   =    -138.95168729 Ry
     estimated scf accuracy    <       0.00000494 Ry

     iteration # 29     ecut=   100.00 Ry     beta=0.30
     Davidson diagonalization with overlap
     ethr =  2.00E-08,  avg # of iterations =  1.0

     total cpu time spent up to now is      728.4 secs

     total energy              =    -138.95168772 Ry
     Harris-Foulkes estimate   =    -138.95168719 Ry
     estimated scf accuracy    <       0.00000460 Ry

     iteration # 30     ecut=   100.00 Ry     beta=0.30
     Davidson diagonalization with overlap
     ethr =  1.91E-08,  avg # of iterations =  1.0

     total cpu time spent up to now is      754.8 secs

     total energy              =    -138.95168764 Ry
     Harris-Foulkes estimate   =    -138.95168773 Ry
     estimated scf accuracy    <       0.00000601 Ry

     iteration # 31     ecut=   100.00 Ry     beta=0.30
     Davidson diagonalization with overlap
     ethr =  1.91E-08,  avg # of iterations =  1.0

     total cpu time spent up to now is      776.3 secs

     total energy              =    -138.95168539 Ry
     Harris-Foulkes estimate   =    -138.95168765 Ry
     estimated scf accuracy    <       0.00000571 Ry

     iteration # 32     ecut=   100.00 Ry     beta=0.30
     Davidson diagonalization with overlap
     ethr =  1.91E-08,  avg # of iterations =  3.7

     total cpu time spent up to now is      801.6 secs

     End of self-consistent calculation

     Number of k-points >= 100: set verbosity='high' to print the bands.

!    total energy              =    -138.95168598 Ry
     Harris-Foulkes estimate   =    -138.95168650 Ry
     estimated scf accuracy    <       0.00000076 Ry

     The total energy is the sum of the following terms:

     one-electron contribution =     -26.04064477 Ry
     hartree contribution      =      27.58809022 Ry
     xc contribution           =     -26.13870518 Ry
     ewald contribution        =    -114.36042625 Ry

     convergence has been achieved in  32 iterations

     Forces acting on atoms (Ry/au):

     atom    1 type  3   force =    -0.00029570    0.00017073   -0.00114771
     atom    2 type  2   force =    -0.14432346    0.08332519   -0.18309947
     atom    3 type  2   force =     0.14370716   -0.08296937    0.19658348
     atom    4 type  1   force =     0.01556951   -0.00898906   -0.02906916
     atom    5 type  1   force =    -0.01465750    0.00846251    0.01673285

     Total force =     0.359464     Total SCF correction =     0.000606


     entering subroutine stress ...

          total   stress  (Ry/bohr**3)                   (kbar)     P= 1016.27
   0.00960679   0.00037459   0.00055401       1413.21     55.10     81.50
   0.00037459   0.01003932  -0.00031986         55.10   1476.84    -47.05
   0.00055401  -0.00031986   0.00107922         81.50    -47.05    158.76


     BFGS Geometry Optimization

     number of scf cycles    =   1
     number of bfgs steps    =   0

     enthalpy new            =    -137.0581160138 Ry

     new trust radius        =       0.5000000000 bohr
     new conv_thr            =       0.0000010000 Ry

     new unit-cell volume =    209.34376 a.u.^3 (    31.02154 Ang^3 )

CELL_PARAMETERS (alat=  5.86000000)
   1.033462560   0.008648463   0.012791040
  -0.509241491   0.899329062  -0.012791040
   0.017037666  -0.009836701   1.114322335

ATOMIC_POSITIONS (crystal)
Ca      -0.000031068   0.000031068  -0.000135792
O        0.318170036   0.681829964   0.450336390
O        0.681765213   0.318234787   0.561258986
H        0.501635805   0.498364195   0.704560651
H        0.498460014   0.501539986   0.293979765



     Writing output data file CaOH2_ambient.save
     NEW-OLD atomic charge density approx. for the potential
     NEW k-points: (use verbosity='high' to print them)
     extrapolated charge   21.60559, renormalised to   24.00000

     total cpu time spent up to now is      892.1 secs

     per-process dynamical memory:    17.6 Mb

     Self-consistent Calculation

     iteration #  1     ecut=   100.00 Ry     beta=0.30
     Davidson diagonalization with overlap
     ethr =  1.00E-06,  avg # of iterations =  9.6

     total cpu time spent up to now is      973.2 secs

     total energy              =    -138.78921180 Ry
     Harris-Foulkes estimate   =    -141.10812331 Ry
     estimated scf accuracy    <       1.57396053 Ry

     iteration #  2     ecut=   100.00 Ry     beta=0.30
     Davidson diagonalization with overlap
     ethr =  6.56E-03,  avg # of iterations =  2.1

     total cpu time spent up to now is     1003.0 secs

     total energy              =    -139.22329593 Ry
     Harris-Foulkes estimate   =    -139.24077582 Ry
     estimated scf accuracy    <       0.11062453 Ry

     iteration #  3     ecut=   100.00 Ry     beta=0.30
     Davidson diagonalization with overlap
     ethr =  4.61E-04,  avg # of iterations =  2.0

     total cpu time spent up to now is     1025.2 secs

     total energy              =    -139.20551157 Ry
     Harris-Foulkes estimate   =    -139.22920211 Ry
     estimated scf accuracy    <       0.05673818 Ry

     iteration #  4     ecut=   100.00 Ry     beta=0.30
     Davidson diagonalization with overlap
     ethr =  2.36E-04,  avg # of iterations =  3.1

     total cpu time spent up to now is     1050.3 secs

     total energy              =    -139.21423469 Ry
     Harris-Foulkes estimate   =    -139.21510719 Ry
     estimated scf accuracy    <       0.00340759 Ry

     iteration #  5     ecut=   100.00 Ry     beta=0.30
     Davidson diagonalization with overlap
     ethr =  1.42E-05,  avg # of iterations =  2.2

     total cpu time spent up to now is     1073.7 secs

     total energy              =    -139.21411538 Ry
     Harris-Foulkes estimate   =    -139.21455848 Ry
     estimated scf accuracy    <       0.00097082 Ry

     iteration #  6     ecut=   100.00 Ry     beta=0.30
     Davidson diagonalization with overlap
     ethr =  4.05E-06,  avg # of iterations =  3.4

     total cpu time spent up to now is     1103.4 secs

     total energy              =    -139.21440118 Ry
     Harris-Foulkes estimate   =    -139.21455269 Ry
     estimated scf accuracy    <       0.00075166 Ry

     iteration #  7     ecut=   100.00 Ry     beta=0.30
     Davidson diagonalization with overlap
     ethr =  3.13E-06,  avg # of iterations =  1.3

     total cpu time spent up to now is     1124.3 secs

     total energy              =    -139.21428699 Ry
     Harris-Foulkes estimate   =    -139.21442625 Ry
     estimated scf accuracy    <       0.00027532 Ry

     iteration #  8     ecut=   100.00 Ry     beta=0.30
     Davidson diagonalization with overlap
     ethr =  1.15E-06,  avg # of iterations =  3.3

     total cpu time spent up to now is     1153.1 secs

     total energy              =    -139.21446326 Ry
     Harris-Foulkes estimate   =    -139.21451668 Ry
     estimated scf accuracy    <       0.00015299 Ry

     iteration #  9     ecut=   100.00 Ry     beta=0.30
     Davidson diagonalization with overlap
     ethr =  6.37E-07,  avg # of iterations =  2.8

     total cpu time spent up to now is     1179.3 secs

     total energy              =    -139.21448575 Ry
     Harris-Foulkes estimate   =    -139.21448576 Ry
     estimated scf accuracy    <       0.00000166 Ry

     iteration # 10     ecut=   100.00 Ry     beta=0.30
     Davidson diagonalization with overlap
     ethr =  6.90E-09,  avg # of iterations =  4.1

     total cpu time spent up to now is     1216.7 secs

     total energy              =    -139.21448518 Ry
     Harris-Foulkes estimate   =    -139.21448805 Ry
     estimated scf accuracy    <       0.00000814 Ry

     iteration # 11     ecut=   100.00 Ry     beta=0.30
     Davidson diagonalization with overlap
     ethr =  6.90E-09,  avg # of iterations =  3.6

     total cpu time spent up to now is     1248.5 secs

     total energy              =    -139.21510487 Ry
     Harris-Foulkes estimate   =    -139.21510490 Ry
     estimated scf accuracy    <       0.00003656 Ry

     iteration # 12     ecut=   100.00 Ry     beta=0.30
     Davidson diagonalization with overlap
     ethr =  6.90E-09,  avg # of iterations =  1.0

     total cpu time spent up to now is     1269.2 secs

     total energy              =    -139.21510365 Ry
     Harris-Foulkes estimate   =    -139.21510487 Ry
     estimated scf accuracy    <       0.00003644 Ry

     iteration # 13     ecut=   100.00 Ry     beta=0.30
     Davidson diagonalization with overlap
     ethr =  6.90E-09,  avg # of iterations =  1.1

     total cpu time spent up to now is     1290.2 secs

     total energy              =    -139.21509728 Ry
     Harris-Foulkes estimate   =    -139.21510367 Ry
     estimated scf accuracy    <       0.00003219 Ry

     iteration # 14     ecut=   100.00 Ry     beta=0.30
     Davidson diagonalization with overlap
     ethr =  6.90E-09,  avg # of iterations =  3.5

     total cpu time spent up to now is     1322.7 secs

     total energy              =    -139.21509867 Ry
     Harris-Foulkes estimate   =    -139.21509872 Ry
     estimated scf accuracy    <       0.00000648 Ry

     iteration # 15     ecut=   100.00 Ry     beta=0.30
     Davidson diagonalization with overlap
     ethr =  6.90E-09,  avg # of iterations =  1.0

     total cpu time spent up to now is     1343.4 secs

     total energy              =    -139.21509728 Ry
     Harris-Foulkes estimate   =    -139.21509867 Ry
     estimated scf accuracy    <       0.00000623 Ry

     iteration # 16     ecut=   100.00 Ry     beta=0.30
     Davidson diagonalization with overlap
     ethr =  6.90E-09,  avg # of iterations =  3.0

     total cpu time spent up to now is     1370.6 secs

     End of self-consistent calculation

     Number of k-points >= 100: set verbosity='high' to print the bands.

!    total energy              =    -139.21509689 Ry
     Harris-Foulkes estimate   =    -139.21509760 Ry
     estimated scf accuracy    <       0.00000097 Ry

     The total energy is the sum of the following terms:

     one-electron contribution =     -18.01730411 Ry
     hartree contribution      =      25.04340805 Ry
     xc contribution           =     -26.44731182 Ry
     ewald contribution        =    -119.79388901 Ry

     convergence has been achieved in  16 iterations

     Forces acting on atoms (Ry/au):

     atom    1 type  3   force =    -0.00040729    0.00023515    0.00312484
     atom    2 type  2   force =     0.06572036   -0.03794367   -0.27460509
     atom    3 type  2   force =    -0.06102688    0.03523389    0.26803750
     atom    4 type  1   force =     0.03632743   -0.02097365   -0.06071006
     atom    5 type  1   force =    -0.04061363    0.02344829    0.06415281

     Total force =     0.412003     Total SCF correction =     0.000864


     entering subroutine stress ...

          total   stress  (Ry/bohr**3)                   (kbar)     P= 1103.55
   0.00912113   0.00252324   0.00034102       1341.76    371.18     50.17
   0.00252324   0.01203471  -0.00019689        371.18   1770.37    -28.96
   0.00034102  -0.00019689   0.00134943         50.17    -28.96    198.51


     number of scf cycles    =   2
     number of bfgs steps    =   1

     enthalpy old            =    -137.0581160138 Ry
     enthalpy new            =    -137.5073886755 Ry

     CASE: enthalpy_new < enthalpy_old


     WARNING: bfgs curvature condition failed, Theta= 0.873
     new trust radius        =       0.6251659136 bohr
     new conv_thr            =       0.0000010000 Ry

     new unit-cell volume =    178.22803 a.u.^3 (    26.41067 Ang^3 )

CELL_PARAMETERS (alat=  5.86000000)
   1.067070127   0.026550101   0.026001831
  -0.510542002   0.937384888  -0.026001831
   0.034534016  -0.019938223   0.874766127

ATOMIC_POSITIONS (crystal)
Ca      -0.000066795   0.000066795  -0.000193951
O        0.306046874   0.693953126   0.425568936
O        0.693931981   0.306068019   0.587315713
H        0.503871864   0.496128136   0.700295102
H        0.496216077   0.503783923   0.297014199



     Writing output data file CaOH2_ambient.save
     NEW-OLD atomic charge density approx. for the potential
     NEW k-points: (use verbosity='high' to print them)
     extrapolated charge   20.15916, renormalised to   24.00000

     total cpu time spent up to now is     1461.2 secs

     per-process dynamical memory:    17.6 Mb

     Self-consistent Calculation

     iteration #  1     ecut=   100.00 Ry     beta=0.30
     Davidson diagonalization with overlap
     ethr =  1.00E-06,  avg # of iterations =  8.4

     total cpu time spent up to now is     1540.2 secs

     total energy              =    -138.52188699 Ry
     Harris-Foulkes estimate   =    -140.56344887 Ry
     estimated scf accuracy    <       1.42934296 Ry

     iteration #  2     ecut=   100.00 Ry     beta=0.30
     Davidson diagonalization with overlap
     ethr =  5.96E-03,  avg # of iterations =  3.0

     total cpu time spent up to now is     1572.5 secs

     total energy              =    -139.27497397 Ry
     Harris-Foulkes estimate   =    -139.29315719 Ry
     estimated scf accuracy    <       0.10197931 Ry

     iteration #  3     ecut=   100.00 Ry     beta=0.30
     Davidson diagonalization with overlap
     ethr =  4.25E-04,  avg # of iterations =  1.7

     total cpu time spent up to now is     1594.3 secs

     total energy              =    -139.24343130 Ry
     Harris-Foulkes estimate   =    -139.27871648 Ry
     estimated scf accuracy    <       0.05889580 Ry

     iteration #  4     ecut=   100.00 Ry     beta=0.30
     Davidson diagonalization with overlap
     ethr =  2.45E-04,  avg # of iterations =  2.8

     total cpu time spent up to now is     1622.5 secs

     total energy              =    -139.25927442 Ry
     Harris-Foulkes estimate   =    -139.26205987 Ry
     estimated scf accuracy    <       0.01196621 Ry

     iteration #  5     ecut=   100.00 Ry     beta=0.30
     Davidson diagonalization with overlap
     ethr =  4.99E-05,  avg # of iterations =  1.2

     total cpu time spent up to now is     1643.3 secs

     total energy              =    -139.25699021 Ry
     Harris-Foulkes estimate   =    -139.25973370 Ry
     estimated scf accuracy    <       0.00473589 Ry

     iteration #  6     ecut=   100.00 Ry     beta=0.30
     Davidson diagonalization with overlap
     ethr =  1.97E-05,  avg # of iterations =  2.9

     total cpu time spent up to now is     1672.5 secs

     total energy              =    -139.25887979 Ry
     Harris-Foulkes estimate   =    -139.25900189 Ry
     estimated scf accuracy    <       0.00130708 Ry

     iteration #  7     ecut=   100.00 Ry     beta=0.30
     Davidson diagonalization with overlap
     ethr =  5.45E-06,  avg # of iterations =  1.0

     total cpu time spent up to now is     1693.2 secs

     total energy              =    -139.25843488 Ry
     Harris-Foulkes estimate   =    -139.25889298 Ry
     estimated scf accuracy    <       0.00097775 Ry

     iteration #  8     ecut=   100.00 Ry     beta=0.30
     Davidson diagonalization with overlap
     ethr =  4.07E-06,  avg # of iterations =  2.3

     total cpu time spent up to now is     1720.2 secs

     total energy              =    -139.25862824 Ry
     Harris-Foulkes estimate   =    -139.25862852 Ry
     estimated scf accuracy    <       0.00000239 Ry

     iteration #  9     ecut=   100.00 Ry     beta=0.30
     Davidson diagonalization with overlap
     ethr =  9.97E-09,  avg # of iterations =  3.0

     total cpu time spent up to now is     1749.4 secs

     End of self-consistent calculation

     Number of k-points >= 100: set verbosity='high' to print the bands.

!    total energy              =    -139.25862930 Ry
     Harris-Foulkes estimate   =    -139.25862965 Ry
     estimated scf accuracy    <       0.00000096 Ry

     The total energy is the sum of the following terms:

     one-electron contribution =      -5.27436197 Ry
     hartree contribution      =      20.85956518 Ry
     xc contribution           =     -26.76628689 Ry
     ewald contribution        =    -128.07754563 Ry

     convergence has been achieved in   9 iterations

     Forces acting on atoms (Ry/au):

     atom    1 type  3   force =     0.00043898   -0.00025344    0.00581692
     atom    2 type  2   force =     0.23769650   -0.13723414   -0.14978269
     atom    3 type  2   force =    -0.23262918    0.13430852    0.13853860
     atom    4 type  1   force =     0.04566496   -0.02636468    0.01632844
     atom    5 type  1   force =    -0.05117126    0.02954374   -0.01090126

     Total force =     0.442501     Total SCF correction =     0.000689


     entering subroutine stress ...

          total   stress  (Ry/bohr**3)                   (kbar)     P= 1517.20
   0.00869595   0.00492017   0.00025804       1279.22    723.78     37.96
   0.00492017   0.01437727  -0.00014898        723.78   2114.97    -21.92
   0.00025804  -0.00014898   0.00786798         37.96    -21.92   1157.42


     number of scf cycles    =   3
     number of bfgs steps    =   2

     enthalpy old            =    -137.5073886755 Ry
     enthalpy new            =    -137.8047456636 Ry

     CASE: enthalpy_new < enthalpy_old

     new trust radius        =       0.2461082404 bohr
     new conv_thr            =       0.0000010000 Ry

     new unit-cell volume =    184.42912 a.u.^3 (    27.32958 Ang^3 )

CELL_PARAMETERS (alat=  5.86000000)
   1.105734456   0.071234586   0.040739844
  -0.491176267   0.993211421  -0.040739844
   0.061602883  -0.035566441   0.811910558

ATOMIC_POSITIONS (crystal)
Ca       0.000019058  -0.000019058  -0.000283360
O        0.303724528   0.696275472   0.413540659
O        0.696112479   0.303887521   0.601874293
H        0.507690648   0.492309352   0.704730886
H        0.492453287   0.507546713   0.290137522



     Writing output data file CaOH2_ambient.save
     NEW-OLD atomic charge density approx. for the potential
     NEW k-points: (use verbosity='high' to print them)
     extrapolated charge   24.73971, renormalised to   24.00000

     total cpu time spent up to now is     1839.8 secs

     per-process dynamical memory:    17.6 Mb

     Self-consistent Calculation

     iteration #  1     ecut=   100.00 Ry     beta=0.30
     Davidson diagonalization with overlap
     ethr =  1.00E-06,  avg # of iterations =  7.7

     total cpu time spent up to now is     1909.7 secs

     total energy              =    -139.39058718 Ry
     Harris-Foulkes estimate   =    -139.18815829 Ry
     estimated scf accuracy    <       0.03251148 Ry

     iteration #  2     ecut=   100.00 Ry     beta=0.30
     Davidson diagonalization with overlap
     ethr =  1.35E-04,  avg # of iterations =  3.0

     total cpu time spent up to now is     1945.4 secs

     total energy              =    -139.41498439 Ry
     Harris-Foulkes estimate   =    -139.41781317 Ry
     estimated scf accuracy    <       0.02474543 Ry

     iteration #  3     ecut=   100.00 Ry     beta=0.30
     Davidson diagonalization with overlap
     ethr =  1.03E-04,  avg # of iterations =  1.0

     total cpu time spent up to now is     1966.6 secs

     total energy              =    -139.40502648 Ry
     Harris-Foulkes estimate   =    -139.41515568 Ry
     estimated scf accuracy    <       0.01705740 Ry

     iteration #  4     ecut=   100.00 Ry     beta=0.30
     Davidson diagonalization with overlap
     ethr =  7.11E-05,  avg # of iterations =  2.8

     total cpu time spent up to now is     1994.8 secs

     total energy              =    -139.41028481 Ry
     Harris-Foulkes estimate   =    -139.41067711 Ry
     estimated scf accuracy    <       0.00318808 Ry

     iteration #  5     ecut=   100.00 Ry     beta=0.30
     Davidson diagonalization with overlap
     ethr =  1.33E-05,  avg # of iterations =  1.0

     total cpu time spent up to now is     2015.4 secs

     total energy              =    -139.40934486 Ry
     Harris-Foulkes estimate   =    -139.41032957 Ry
     estimated scf accuracy    <       0.00217729 Ry

     iteration #  6     ecut=   100.00 Ry     beta=0.30
     Davidson diagonalization with overlap
     ethr =  9.07E-06,  avg # of iterations =  2.1

     total cpu time spent up to now is     2042.5 secs

     total energy              =    -139.40972733 Ry
     Harris-Foulkes estimate   =    -139.40973124 Ry
     estimated scf accuracy    <       0.00001832 Ry

     iteration #  7     ecut=   100.00 Ry     beta=0.30
     Davidson diagonalization with overlap
     ethr =  7.63E-08,  avg # of iterations =  3.0

     total cpu time spent up to now is     2070.4 secs

     total energy              =    -139.40973114 Ry
     Harris-Foulkes estimate   =    -139.40973267 Ry
     estimated scf accuracy    <       0.00000805 Ry

     iteration #  8     ecut=   100.00 Ry     beta=0.30
     Davidson diagonalization with overlap
     ethr =  3.35E-08,  avg # of iterations =  1.0

     total cpu time spent up to now is     2091.0 secs

     total energy              =    -139.40973095 Ry
     Harris-Foulkes estimate   =    -139.40973150 Ry
     estimated scf accuracy    <       0.00000117 Ry

     iteration #  9     ecut=   100.00 Ry     beta=0.30
     Davidson diagonalization with overlap
     ethr =  4.89E-09,  avg # of iterations =  2.0

     total cpu time spent up to now is     2118.7 secs

     End of self-consistent calculation

     Number of k-points >= 100: set verbosity='high' to print the bands.

!    total energy              =    -139.40973121 Ry
     Harris-Foulkes estimate   =    -139.40973127 Ry
     estimated scf accuracy    <       0.00000011 Ry

     The total energy is the sum of the following terms:

     one-electron contribution =      -7.15359996 Ry
     hartree contribution      =      21.09050614 Ry
     xc contribution           =     -26.67280098 Ry
     ewald contribution        =    -126.67383640 Ry

     convergence has been achieved in   9 iterations

     Forces acting on atoms (Ry/au):

     atom    1 type  3   force =    -0.00110519    0.00063808    0.00732725
     atom    2 type  2   force =     0.20108443   -0.11609615   -0.11000499
     atom    3 type  2   force =    -0.19321033    0.11155003    0.10039377
     atom    4 type  1   force =     0.05511368   -0.03181990    0.04452181
     atom    5 type  1   force =    -0.06188260    0.03572794   -0.04223784

     Total force =     0.372618     Total SCF correction =     0.000410


     entering subroutine stress ...

          total   stress  (Ry/bohr**3)                   (kbar)     P= 1161.55
   0.00539276   0.00282834   0.00056584        793.30    416.06     83.24
   0.00282834   0.00865864  -0.00032669        416.06   1273.73    -48.06
   0.00056584  -0.00032669   0.00963669         83.24    -48.06   1417.61


     number of scf cycles    =   4
     number of bfgs steps    =   3

     enthalpy old            =    -137.8047456636 Ry
     enthalpy new            =    -137.9052625718 Ry

     CASE: enthalpy_new < enthalpy_old

     new trust radius        =       0.2395633953 bohr
     new conv_thr            =       0.0000010000 Ry

     new unit-cell volume =    186.54769 a.u.^3 (    27.64351 Ang^3 )

CELL_PARAMETERS (alat=  5.86000000)
   1.077855818   0.115385498   0.061740890
  -0.439001136   0.991143269  -0.061740890
   0.116929060  -0.067509025   0.837996697

ATOMIC_POSITIONS (crystal)
Ca      -0.000052026   0.000052026  -0.000073416
O        0.309587052   0.690412948   0.402237420
O        0.690737481   0.309262519   0.615613732
H        0.515577089   0.484422911   0.712928512
H        0.484150403   0.515849597   0.279293751



     Writing output data file CaOH2_ambient.save
     NEW-OLD atomic charge density approx. for the potential
     NEW k-points: (use verbosity='high' to print them)
     extrapolated charge   24.24985, renormalised to   24.00000

     total cpu time spent up to now is     2209.6 secs

     per-process dynamical memory:    17.6 Mb

     Self-consistent Calculation

     iteration #  1     ecut=   100.00 Ry     beta=0.30
     Davidson diagonalization with overlap
     ethr =  1.00E-06,  avg # of iterations =  6.7

     total cpu time spent up to now is     2276.7 secs

     total energy              =    -139.50511418 Ry
     Harris-Foulkes estimate   =    -139.40656189 Ry
     estimated scf accuracy    <       0.01411043 Ry

     iteration #  2     ecut=   100.00 Ry     beta=0.30
     Davidson diagonalization with overlap
     ethr =  5.88E-05,  avg # of iterations =  2.0

     total cpu time spent up to now is     2303.1 secs

     total energy              =    -139.50635412 Ry
     Harris-Foulkes estimate   =    -139.50665576 Ry
     estimated scf accuracy    <       0.01551955 Ry

     iteration #  3     ecut=   100.00 Ry     beta=0.30
     Davidson diagonalization with overlap
     ethr =  5.88E-05,  avg # of iterations =  1.0

     total cpu time spent up to now is     2323.7 secs

     total energy              =    -139.49899415 Ry
     Harris-Foulkes estimate   =    -139.50638175 Ry
     estimated scf accuracy    <       0.01469652 Ry

     iteration #  4     ecut=   100.00 Ry     beta=0.30
     Davidson diagonalization with overlap
     ethr =  5.88E-05,  avg # of iterations =  2.0

     total cpu time spent up to now is     2351.3 secs

     total energy              =    -139.50216168 Ry
     Harris-Foulkes estimate   =    -139.50209214 Ry
     estimated scf accuracy    <       0.00096008 Ry

     iteration #  5     ecut=   100.00 Ry     beta=0.30
     Davidson diagonalization with overlap
     ethr =  4.00E-06,  avg # of iterations =  1.2

     total cpu time spent up to now is     2372.1 secs

     total energy              =    -139.50168787 Ry
     Harris-Foulkes estimate   =    -139.50219314 Ry
     estimated scf accuracy    <       0.00109774 Ry

     iteration #  6     ecut=   100.00 Ry     beta=0.30
     Davidson diagonalization with overlap
     ethr =  4.00E-06,  avg # of iterations =  2.0

     total cpu time spent up to now is     2398.8 secs

     total energy              =    -139.50182457 Ry
     Harris-Foulkes estimate   =    -139.50183636 Ry
     estimated scf accuracy    <       0.00002824 Ry

     iteration #  7     ecut=   100.00 Ry     beta=0.30
     Davidson diagonalization with overlap
     ethr =  1.18E-07,  avg # of iterations =  3.0

     total cpu time spent up to now is     2429.2 secs

     total energy              =    -139.50183412 Ry
     Harris-Foulkes estimate   =    -139.50183652 Ry
     estimated scf accuracy    <       0.00002259 Ry

     iteration #  8     ecut=   100.00 Ry     beta=0.30
     Davidson diagonalization with overlap
     ethr =  9.41E-08,  avg # of iterations =  1.0

     total cpu time spent up to now is     2449.9 secs

     total energy              =    -139.50182980 Ry
     Harris-Foulkes estimate   =    -139.50183448 Ry
     estimated scf accuracy    <       0.00001097 Ry

     iteration #  9     ecut=   100.00 Ry     beta=0.30
     Davidson diagonalization with overlap
     ethr =  4.57E-08,  avg # of iterations =  2.0

     total cpu time spent up to now is     2477.2 secs

     End of self-consistent calculation

     Number of k-points >= 100: set verbosity='high' to print the bands.

!    total energy              =    -139.50183216 Ry
     Harris-Foulkes estimate   =    -139.50183249 Ry
     estimated scf accuracy    <       0.00000050 Ry

     The total energy is the sum of the following terms:

     one-electron contribution =     -10.29022618 Ry
     hartree contribution      =      22.39163671 Ry
     xc contribution           =     -26.86722715 Ry
     ewald contribution        =    -124.73601554 Ry

     convergence has been achieved in   9 iterations

     Forces acting on atoms (Ry/au):

     atom    1 type  3   force =    -0.00369897    0.00213560    0.01119128
     atom    2 type  2   force =     0.02202620   -0.01271683   -0.11085615
     atom    3 type  2   force =    -0.01227469    0.00708680    0.10940058
     atom    4 type  1   force =    -0.05343018    0.03084793    0.04776968
     atom    5 type  1   force =     0.04737764   -0.02735349   -0.05750539

     Total force =     0.194002     Total SCF correction =     0.001327


     entering subroutine stress ...

          total   stress  (Ry/bohr**3)                   (kbar)     P= 1250.29
   0.00816621  -0.00014342  -0.00068896       1201.29    -21.10   -101.35
  -0.00014342   0.00800061   0.00039777        -21.10   1176.93     58.51
  -0.00068896   0.00039777   0.00933109       -101.35     58.51   1372.65


     number of scf cycles    =   5
     number of bfgs steps    =   4

     enthalpy old            =    -137.9052625718 Ry
     enthalpy new            =    -137.9800814260 Ry

     CASE: enthalpy_new < enthalpy_old

     new trust radius        =       0.1988552051 bohr
     new conv_thr            =       0.0000010000 Ry

     new unit-cell volume =    198.80441 a.u.^3 (    29.45977 Ang^3 )

CELL_PARAMETERS (alat=  5.86000000)
   1.072928580   0.119676542   0.048681301
  -0.432821365   0.989021678  -0.048681301
   0.097813499  -0.056472650   0.894008338

ATOMIC_POSITIONS (crystal)
Ca      -0.000410778   0.000410778   0.000807997
O        0.312766835   0.687233165   0.391613614
O        0.688761027   0.311238973   0.626621294
H        0.511381524   0.488618476   0.717246525
H        0.487501391   0.512498609   0.273710569



     Writing output data file CaOH2_ambient.save
     NEW-OLD atomic charge density approx. for the potential
     NEW k-points: (use verbosity='high' to print them)
     extrapolated charge   25.35635, renormalised to   24.00000

     total cpu time spent up to now is     2567.6 secs

     per-process dynamical memory:    17.6 Mb

     Self-consistent Calculation

     iteration #  1     ecut=   100.00 Ry     beta=0.30
     Davidson diagonalization with overlap
     ethr =  1.00E-06,  avg # of iterations =  6.2

     total cpu time spent up to now is     2630.3 secs

     total energy              =    -139.50846933 Ry
     Harris-Foulkes estimate   =    -138.96234998 Ry
     estimated scf accuracy    <       0.13472399 Ry

     iteration #  2     ecut=   100.00 Ry     beta=0.30
     Davidson diagonalization with overlap
     ethr =  5.61E-04,  avg # of iterations =  3.0

     total cpu time spent up to now is     2665.9 secs

     total energy              =    -139.61763481 Ry
     Harris-Foulkes estimate   =    -139.62138628 Ry
     estimated scf accuracy    <       0.02251242 Ry

     iteration #  3     ecut=   100.00 Ry     beta=0.30
     Davidson diagonalization with overlap
     ethr =  9.38E-05,  avg # of iterations =  1.0

     total cpu time spent up to now is     2686.6 secs

     total energy              =    -139.61003577 Ry
     Harris-Foulkes estimate   =    -139.61799425 Ry
     estimated scf accuracy    <       0.01290789 Ry

     iteration #  4     ecut=   100.00 Ry     beta=0.30
     Davidson diagonalization with overlap
     ethr =  5.38E-05,  avg # of iterations =  2.1

     total cpu time spent up to now is     2715.6 secs

     total energy              =    -139.61394582 Ry
     Harris-Foulkes estimate   =    -139.61449193 Ry
     estimated scf accuracy    <       0.00214203 Ry

     iteration #  5     ecut=   100.00 Ry     beta=0.30
     Davidson diagonalization with overlap
     ethr =  8.93E-06,  avg # of iterations =  1.3

     total cpu time spent up to now is     2736.6 secs

     total energy              =    -139.61366303 Ry
     Harris-Foulkes estimate   =    -139.61403678 Ry
     estimated scf accuracy    <       0.00073609 Ry

     iteration #  6     ecut=   100.00 Ry     beta=0.30
     Davidson diagonalization with overlap
     ethr =  3.07E-06,  avg # of iterations =  2.0

     total cpu time spent up to now is     2764.0 secs

     total energy              =    -139.61383853 Ry
     Harris-Foulkes estimate   =    -139.61383983 Ry
     estimated scf accuracy    <       0.00001501 Ry

     iteration #  7     ecut=   100.00 Ry     beta=0.30
     Davidson diagonalization with overlap
     ethr =  6.25E-08,  avg # of iterations =  2.0

     total cpu time spent up to now is     2786.8 secs

     total energy              =    -139.61383469 Ry
     Harris-Foulkes estimate   =    -139.61383951 Ry
     estimated scf accuracy    <       0.00001126 Ry

     iteration #  8     ecut=   100.00 Ry     beta=0.30
     Davidson diagonalization with overlap
     ethr =  4.69E-08,  avg # of iterations =  2.0

     total cpu time spent up to now is     2813.3 secs

     End of self-consistent calculation

     Number of k-points >= 100: set verbosity='high' to print the bands.

!    total energy              =    -139.61383621 Ry
     Harris-Foulkes estimate   =    -139.61383636 Ry
     estimated scf accuracy    <       0.00000039 Ry

     The total energy is the sum of the following terms:

     one-electron contribution =     -13.97415049 Ry
     hartree contribution      =      23.30809813 Ry
     xc contribution           =     -26.70864278 Ry
     ewald contribution        =    -122.23914107 Ry

     convergence has been achieved in   8 iterations

     Forces acting on atoms (Ry/au):

     atom    1 type  3   force =     0.00456015   -0.00263281    0.00795184
     atom    2 type  2   force =    -0.01621555    0.00936205   -0.09105707
     atom    3 type  2   force =     0.00916615   -0.00529208    0.09463443
     atom    4 type  1   force =    -0.04042502    0.02333940    0.02486676
     atom    5 type  1   force =     0.04291426   -0.02477656   -0.03639597

     Total force =     0.156135     Total SCF correction =     0.001218


     entering subroutine stress ...

          total   stress  (Ry/bohr**3)                   (kbar)     P=  954.12
   0.00655358  -0.00001515   0.00052540        964.06     -2.23     77.29
  -0.00001515   0.00653608  -0.00030334         -2.23    961.49    -44.62
   0.00052540  -0.00030334   0.00636819         77.29    -44.62    936.79


     number of scf cycles    =   6
     number of bfgs steps    =   5

     enthalpy old            =    -137.9800814260 Ry
     enthalpy new            =    -137.9921020101 Ry

     CASE: enthalpy_new < enthalpy_old

     new trust radius        =       0.0907862821 bohr
     new conv_thr            =       0.0000009463 Ry

     new unit-cell volume =    191.29128 a.u.^3 (    28.34644 Ang^3 )

CELL_PARAMETERS (alat=  5.86000000)
   1.049144673   0.132012475   0.049207166
  -0.410246180   0.974592176  -0.049207166
   0.101090478  -0.058364615   0.889753549

ATOMIC_POSITIONS (crystal)
Ca      -0.000299267   0.000299267   0.002189675
O        0.313914970   0.686085030   0.375092551
O        0.688105644   0.311894356   0.643997498
H        0.504199022   0.495800978   0.723413515
H        0.494079631   0.505920369   0.265306761



     Writing output data file CaOH2_ambient.save
     NEW-OLD atomic charge density approx. for the potential
     NEW k-points: (use verbosity='high' to print them)
     extrapolated charge   23.13593, renormalised to   24.00000

     total cpu time spent up to now is     2903.6 secs

     per-process dynamical memory:    17.6 Mb

     Self-consistent Calculation

     iteration #  1     ecut=   100.00 Ry     beta=0.30
     Davidson diagonalization with overlap
     ethr =  1.00E-06,  avg # of iterations =  6.3

     total cpu time spent up to now is     2966.5 secs

     total energy              =    -139.54479940 Ry
     Harris-Foulkes estimate   =    -139.96794621 Ry
     estimated scf accuracy    <       0.05163036 Ry

     iteration #  2     ecut=   100.00 Ry     beta=0.30
     Davidson diagonalization with overlap
     ethr =  2.15E-04,  avg # of iterations =  3.0

     total cpu time spent up to now is     3001.0 secs

     total energy              =    -139.58520513 Ry
     Harris-Foulkes estimate   =    -139.58629089 Ry
     estimated scf accuracy    <       0.00721705 Ry

     iteration #  3     ecut=   100.00 Ry     beta=0.30
     Davidson diagonalization with overlap
     ethr =  3.01E-05,  avg # of iterations =  1.0

     total cpu time spent up to now is     3021.8 secs

     total energy              =    -139.58280208 Ry
     Harris-Foulkes estimate   =    -139.58535360 Ry
     estimated scf accuracy    <       0.00422753 Ry

     iteration #  4     ecut=   100.00 Ry     beta=0.30
     Davidson diagonalization with overlap
     ethr =  1.76E-05,  avg # of iterations =  2.2

     total cpu time spent up to now is     3049.6 secs

     total energy              =    -139.58410159 Ry
     Harris-Foulkes estimate   =    -139.58448186 Ry
     estimated scf accuracy    <       0.00106031 Ry

     iteration #  5     ecut=   100.00 Ry     beta=0.30
     Davidson diagonalization with overlap
     ethr =  4.42E-06,  avg # of iterations =  2.0

     total cpu time spent up to now is     3074.9 secs

     total energy              =    -139.58411389 Ry
     Harris-Foulkes estimate   =    -139.58419545 Ry
     estimated scf accuracy    <       0.00014572 Ry

     iteration #  6     ecut=   100.00 Ry     beta=0.30
     Davidson diagonalization with overlap
     ethr =  6.07E-07,  avg # of iterations =  2.0

     total cpu time spent up to now is     3102.6 secs

     total energy              =    -139.58414954 Ry
     Harris-Foulkes estimate   =    -139.58414923 Ry
     estimated scf accuracy    <       0.00000977 Ry

     iteration #  7     ecut=   100.00 Ry     beta=0.30
     Davidson diagonalization with overlap
     ethr =  4.07E-08,  avg # of iterations =  1.1

     total cpu time spent up to now is     3123.2 secs

     total energy              =    -139.58414533 Ry
     Harris-Foulkes estimate   =    -139.58414982 Ry
     estimated scf accuracy    <       0.00000981 Ry

     iteration #  8     ecut=   100.00 Ry     beta=0.30
     Davidson diagonalization with overlap
     ethr =  4.07E-08,  avg # of iterations =  2.0

     total cpu time spent up to now is     3148.9 secs

     End of self-consistent calculation

     Number of k-points >= 100: set verbosity='high' to print the bands.

!    total energy              =    -139.58414633 Ry
     Harris-Foulkes estimate   =    -139.58414663 Ry
     estimated scf accuracy    <       0.00000042 Ry

     The total energy is the sum of the following terms:

     one-electron contribution =     -11.56910956 Ry
     hartree contribution      =      22.68574511 Ry
     xc contribution           =     -26.80473804 Ry
     ewald contribution        =    -123.89604384 Ry

     convergence has been achieved in   8 iterations

     Forces acting on atoms (Ry/au):

     atom    1 type  3   force =     0.00760736   -0.00439211    0.00864357
     atom    2 type  2   force =    -0.02511094    0.01449781   -0.07988033
     atom    3 type  2   force =     0.00469389   -0.00271002    0.08794514
     atom    4 type  1   force =    -0.03913200    0.02259287    0.01454681
     atom    5 type  1   force =     0.05194168   -0.02998854   -0.03125519

     Total force =     0.148205     Total SCF correction =     0.000412


     entering subroutine stress ...

          total   stress  (Ry/bohr**3)                   (kbar)     P= 1129.93
   0.00807819  -0.00061170   0.00089319       1188.34    -89.98    131.39
  -0.00061170   0.00737186  -0.00051568        -89.98   1084.44    -75.86
   0.00089319  -0.00051568   0.00759327        131.39    -75.86   1117.01


     number of scf cycles    =   7
     number of bfgs steps    =   6

     enthalpy old            =    -137.9921020101 Ry
     enthalpy new            =    -138.0237000610 Ry

     CASE: enthalpy_new < enthalpy_old

     new trust radius        =       0.1355746354 bohr
     new conv_thr            =       0.0000008795 Ry

     new unit-cell volume =    186.88529 a.u.^3 (    27.69354 Ang^3 )

CELL_PARAMETERS (alat=  5.86000000)
   1.029491097   0.142960018   0.060011321
  -0.390938541   0.963045452  -0.060011321
   0.124944327  -0.072136641   0.897297957

ATOMIC_POSITIONS (crystal)
Ca       0.000316828  -0.000316828   0.004402954
O        0.315562393   0.684437607   0.350121330
O        0.685696882   0.314303118   0.670242099
H        0.493724839   0.506275161   0.731348348
H        0.504699059   0.495300941   0.253885269



     Writing output data file CaOH2_ambient.save
     NEW-OLD atomic charge density approx. for the potential
     NEW k-points: (use verbosity='high' to print them)
     extrapolated charge   23.48133, renormalised to   24.00000

     total cpu time spent up to now is     3237.7 secs

     per-process dynamical memory:    17.6 Mb

     Self-consistent Calculation

     iteration #  1     ecut=   100.00 Ry     beta=0.30
     Davidson diagonalization with overlap
     ethr =  1.00E-06,  avg # of iterations =  7.0

     total cpu time spent up to now is     3308.3 secs

     total energy              =    -139.57057390 Ry
     Harris-Foulkes estimate   =    -139.79621218 Ry
     estimated scf accuracy    <       0.02099323 Ry

     iteration #  2     ecut=   100.00 Ry     beta=0.30
     Davidson diagonalization with overlap
     ethr =  8.75E-05,  avg # of iterations =  3.0

     total cpu time spent up to now is     3341.4 secs

     total energy              =    -139.58397121 Ry
     Harris-Foulkes estimate   =    -139.58474136 Ry
     estimated scf accuracy    <       0.00603833 Ry

     iteration #  3     ecut=   100.00 Ry     beta=0.30
     Davidson diagonalization with overlap
     ethr =  2.52E-05,  avg # of iterations =  1.0

     total cpu time spent up to now is     3364.5 secs

     total energy              =    -139.58197140 Ry
     Harris-Foulkes estimate   =    -139.58405355 Ry
     estimated scf accuracy    <       0.00386817 Ry

     iteration #  4     ecut=   100.00 Ry     beta=0.30
     Davidson diagonalization with overlap
     ethr =  1.61E-05,  avg # of iterations =  2.0

     total cpu time spent up to now is     3397.1 secs

     total energy              =    -139.58289471 Ry
     Harris-Foulkes estimate   =    -139.58303332 Ry
     estimated scf accuracy    <       0.00054729 Ry

     iteration #  5     ecut=   100.00 Ry     beta=0.30
     Davidson diagonalization with overlap
     ethr =  2.28E-06,  avg # of iterations =  1.1

     total cpu time spent up to now is     3422.6 secs

     total energy              =    -139.58280208 Ry
     Harris-Foulkes estimate   =    -139.58291742 Ry
     estimated scf accuracy    <       0.00020887 Ry

     iteration #  6     ecut=   100.00 Ry     beta=0.30
     Davidson diagonalization with overlap
     ethr =  8.70E-07,  avg # of iterations =  2.0

     total cpu time spent up to now is     3453.5 secs

     total energy              =    -139.58286561 Ry
     Harris-Foulkes estimate   =    -139.58286650 Ry
     estimated scf accuracy    <       0.00001881 Ry

     iteration #  7     ecut=   100.00 Ry     beta=0.30
     Davidson diagonalization with overlap
     ethr =  7.84E-08,  avg # of iterations =  1.0

     total cpu time spent up to now is     3476.1 secs

     total energy              =    -139.58285843 Ry
     Harris-Foulkes estimate   =    -139.58286596 Ry
     estimated scf accuracy    <       0.00001585 Ry

     iteration #  8     ecut=   100.00 Ry     beta=0.30
     Davidson diagonalization with overlap
     ethr =  6.61E-08,  avg # of iterations =  2.0

     total cpu time spent up to now is     3505.0 secs

     End of self-consistent calculation

     Number of k-points >= 100: set verbosity='high' to print the bands.

!    total energy              =    -139.58286092 Ry
     Harris-Foulkes estimate   =    -139.58286105 Ry
     estimated scf accuracy    <       0.00000026 Ry

     The total energy is the sum of the following terms:

     one-electron contribution =     -10.12909710 Ry
     hartree contribution      =      22.33766473 Ry
     xc contribution           =     -26.85748043 Ry
     ewald contribution        =    -124.93394812 Ry

     convergence has been achieved in   8 iterations

     Forces acting on atoms (Ry/au):

     atom    1 type  3   force =     0.00298726   -0.00172470    0.00662336
     atom    2 type  2   force =    -0.02165889    0.01250477   -0.05210522
     atom    3 type  2   force =     0.00136234   -0.00078655    0.06395156
     atom    4 type  1   force =    -0.02818395    0.01627201   -0.00313508
     atom    5 type  1   force =     0.04549324   -0.02626554   -0.01533463

     Total force =     0.107481     Total SCF correction =     0.000432


     entering subroutine stress ...

          total   stress  (Ry/bohr**3)                   (kbar)     P= 1234.35
   0.00878837  -0.00088047   0.00062102       1292.81   -129.52     91.35
  -0.00088047   0.00777169  -0.00035854       -129.52   1143.26    -52.74
   0.00062102  -0.00035854   0.00861278         91.35    -52.74   1266.98


     number of scf cycles    =   8
     number of bfgs steps    =   7

     enthalpy old            =    -138.0237000610 Ry
     enthalpy new            =    -138.0583561827 Ry

     CASE: enthalpy_new < enthalpy_old

     new trust radius        =       0.2044615660 bohr
     new conv_thr            =       0.0000006395 Ry

     new unit-cell volume =    183.86049 a.u.^3 (    27.24531 Ang^3 )

CELL_PARAMETERS (alat=  5.86000000)
   1.005423300   0.148690268   0.075711462
  -0.373942101   0.945067253  -0.075711462
   0.159305517  -0.091975083   0.925907634

ATOMIC_POSITIONS (crystal)
Ca       0.000845154  -0.000845154   0.007804608
O        0.318517295   0.681482705   0.312918086
O        0.680664263   0.319335737   0.709694840
H        0.477519444   0.522480556   0.740308056
H        0.522453844   0.477546156   0.239274411



     Writing output data file CaOH2_ambient.save
     NEW-OLD atomic charge density approx. for the potential
     NEW k-points: (use verbosity='high' to print them)
     extrapolated charge   23.63807, renormalised to   24.00000

     total cpu time spent up to now is     3596.8 secs

     per-process dynamical memory:    17.6 Mb

     Self-consistent Calculation

     iteration #  1     ecut=   100.00 Ry     beta=0.30
     Davidson diagonalization with overlap
     ethr =  1.00E-06,  avg # of iterations =  7.2

     total cpu time spent up to now is     3668.3 secs

     total energy              =    -139.56889467 Ry
     Harris-Foulkes estimate   =    -139.72252417 Ry
     estimated scf accuracy    <       0.02357950 Ry

     iteration #  2     ecut=   100.00 Ry     beta=0.30
     Davidson diagonalization with overlap
     ethr =  9.82E-05,  avg # of iterations =  2.0

     total cpu time spent up to now is     3700.1 secs

     total energy              =    -139.57373475 Ry
     Harris-Foulkes estimate   =    -139.57558399 Ry
     estimated scf accuracy    <       0.01205371 Ry

     iteration #  3     ecut=   100.00 Ry     beta=0.30
     Davidson diagonalization with overlap
     ethr =  5.02E-05,  avg # of iterations =  1.0

     total cpu time spent up to now is     3722.1 secs

     total energy              =    -139.56981990 Ry
     Harris-Foulkes estimate   =    -139.57385176 Ry
     estimated scf accuracy    <       0.00737037 Ry

     iteration #  4     ecut=   100.00 Ry     beta=0.30
     Davidson diagonalization with overlap
     ethr =  3.07E-05,  avg # of iterations =  2.1

     total cpu time spent up to now is     3751.6 secs

     total energy              =    -139.57131343 Ry
     Harris-Foulkes estimate   =    -139.57144534 Ry
     estimated scf accuracy    <       0.00055818 Ry

     iteration #  5     ecut=   100.00 Ry     beta=0.30
     Davidson diagonalization with overlap
     ethr =  2.33E-06,  avg # of iterations =  1.7

     total cpu time spent up to now is     3773.2 secs

     total energy              =    -139.57121741 Ry
     Harris-Foulkes estimate   =    -139.57134234 Ry
     estimated scf accuracy    <       0.00022933 Ry

     iteration #  6     ecut=   100.00 Ry     beta=0.30
     Davidson diagonalization with overlap
     ethr =  9.56E-07,  avg # of iterations =  2.1

     total cpu time spent up to now is     3801.5 secs

     total energy              =    -139.57129227 Ry
     Harris-Foulkes estimate   =    -139.57129176 Ry
     estimated scf accuracy    <       0.00003623 Ry

     iteration #  7     ecut=   100.00 Ry     beta=0.30
     Davidson diagonalization with overlap
     ethr =  1.51E-07,  avg # of iterations =  1.0

     total cpu time spent up to now is     3822.5 secs

     total energy              =    -139.57127555 Ry
     Harris-Foulkes estimate   =    -139.57129266 Ry
     estimated scf accuracy    <       0.00003669 Ry

     iteration #  8     ecut=   100.00 Ry     beta=0.30
     Davidson diagonalization with overlap
     ethr =  1.51E-07,  avg # of iterations =  2.0

     total cpu time spent up to now is     3849.0 secs

     total energy              =    -139.57128068 Ry
     Harris-Foulkes estimate   =    -139.57128101 Ry
     estimated scf accuracy    <       0.00000096 Ry

     iteration #  9     ecut=   100.00 Ry     beta=0.30
     Davidson diagonalization with overlap
     ethr =  4.00E-09,  avg # of iterations =  2.1

     total cpu time spent up to now is     3876.1 secs

     End of self-consistent calculation

     Number of k-points >= 100: set verbosity='high' to print the bands.

!    total energy              =    -139.57128079 Ry
     Harris-Foulkes estimate   =    -139.57128085 Ry
     estimated scf accuracy    <       0.00000014 Ry

     The total energy is the sum of the following terms:

     one-electron contribution =      -9.41265722 Ry
     hartree contribution      =      22.27998841 Ry
     xc contribution           =     -26.87129396 Ry
     ewald contribution        =    -125.56731801 Ry

     convergence has been achieved in   9 iterations

     Forces acting on atoms (Ry/au):

     atom    1 type  3   force =    -0.00601970    0.00347547    0.00224435
     atom    2 type  2   force =    -0.02837905    0.01638465    0.04739466
     atom    3 type  2   force =     0.01800348   -0.01039431   -0.03706111
     atom    4 type  1   force =     0.01381718   -0.00797735   -0.01991619
     atom    5 type  1   force =     0.00257809   -0.00148846    0.00733829

     Total force =     0.076766     Total SCF correction =     0.000825


     entering subroutine stress ...

          total   stress  (Ry/bohr**3)                   (kbar)     P= 1322.05
   0.00922387  -0.00074281  -0.00030163       1356.88   -109.27    -44.37
  -0.00074281   0.00836615   0.00017414       -109.27   1230.70     25.62
  -0.00030163   0.00017414   0.00937127        -44.37     25.62   1378.56


     number of scf cycles    =   9
     number of bfgs steps    =   8

     enthalpy old            =    -138.0583561827 Ry
     enthalpy new            =    -138.0714506475 Ry

     CASE: enthalpy_new < enthalpy_old

     new trust radius        =       0.0829730133 bohr
     new conv_thr            =       0.0000004739 Ry

     new unit-cell volume =    186.50244 a.u.^3 (    27.63681 Ang^3 )

CELL_PARAMETERS (alat=  5.86000000)
   1.019471548   0.136329233   0.069462196
  -0.391671195   0.951052876  -0.069462196
   0.146734697  -0.084717317   0.920449086

ATOMIC_POSITIONS (crystal)
Ca       0.000502537  -0.000502537   0.006832642
O        0.317001702   0.682998298   0.327641037
O        0.681641280   0.318358720   0.694304910
H        0.483036980   0.516963020   0.735069886
H        0.517817501   0.482182499   0.246151524



     Writing output data file CaOH2_ambient.save
     NEW-OLD atomic charge density approx. for the potential
     NEW k-points: (use verbosity='high' to print them)
     extrapolated charge   24.31165, renormalised to   24.00000

     total cpu time spent up to now is     3965.5 secs

     per-process dynamical memory:    17.6 Mb

     Self-consistent Calculation

     iteration #  1     ecut=   100.00 Ry     beta=0.30
     Davidson diagonalization with overlap
     ethr =  1.00E-06,  avg # of iterations =  6.5

     total cpu time spent up to now is     4026.4 secs

     total energy              =    -139.59529807 Ry
     Harris-Foulkes estimate   =    -139.47620616 Ry
     estimated scf accuracy    <       0.00927765 Ry

     iteration #  2     ecut=   100.00 Ry     beta=0.30
     Davidson diagonalization with overlap
     ethr =  3.87E-05,  avg # of iterations =  3.0

     total cpu time spent up to now is     4058.9 secs

     total energy              =    -139.59990816 Ry
     Harris-Foulkes estimate   =    -139.60043307 Ry
     estimated scf accuracy    <       0.00351132 Ry

     iteration #  3     ecut=   100.00 Ry     beta=0.30
     Davidson diagonalization with overlap
     ethr =  1.46E-05,  avg # of iterations =  1.0

     total cpu time spent up to now is     4079.5 secs

     total energy              =    -139.59861013 Ry
     Harris-Foulkes estimate   =    -139.59994889 Ry
     estimated scf accuracy    <       0.00224329 Ry

     iteration #  4     ecut=   100.00 Ry     beta=0.30
     Davidson diagonalization with overlap
     ethr =  9.35E-06,  avg # of iterations =  2.0

     total cpu time spent up to now is     4106.7 secs

     total energy              =    -139.59913219 Ry
     Harris-Foulkes estimate   =    -139.59920135 Ry
     estimated scf accuracy    <       0.00024196 Ry

     iteration #  5     ecut=   100.00 Ry     beta=0.30
     Davidson diagonalization with overlap
     ethr =  1.01E-06,  avg # of iterations =  2.0

     total cpu time spent up to now is     4131.1 secs

     total energy              =    -139.59910463 Ry
     Harris-Foulkes estimate   =    -139.59914669 Ry
     estimated scf accuracy    <       0.00007509 Ry

     iteration #  6     ecut=   100.00 Ry     beta=0.30
     Davidson diagonalization with overlap
     ethr =  3.13E-07,  avg # of iterations =  2.1

     total cpu time spent up to now is     4165.9 secs

     total energy              =    -139.59912774 Ry
     Harris-Foulkes estimate   =    -139.59912805 Ry
     estimated scf accuracy    <       0.00000949 Ry

     iteration #  7     ecut=   100.00 Ry     beta=0.30
     Davidson diagonalization with overlap
     ethr =  3.96E-08,  avg # of iterations =  1.0

     total cpu time spent up to now is     4186.4 secs

     total energy              =    -139.59912366 Ry
     Harris-Foulkes estimate   =    -139.59912792 Ry
     estimated scf accuracy    <       0.00000869 Ry

     iteration #  8     ecut=   100.00 Ry     beta=0.30
     Davidson diagonalization with overlap
     ethr =  3.62E-08,  avg # of iterations =  2.0

     total cpu time spent up to now is     4212.7 secs

     End of self-consistent calculation

     Number of k-points >= 100: set verbosity='high' to print the bands.

!    total energy              =    -139.59912511 Ry
     Harris-Foulkes estimate   =    -139.59912518 Ry
     estimated scf accuracy    <       0.00000015 Ry

     The total energy is the sum of the following terms:

     one-electron contribution =      -9.80687201 Ry
     hartree contribution      =      22.25390244 Ry
     xc contribution           =     -26.81820975 Ry
     ewald contribution        =    -125.22794579 Ry

     convergence has been achieved in   8 iterations

     Forces acting on atoms (Ry/au):

     atom    1 type  3   force =    -0.00474553    0.00273984    0.00261566
     atom    2 type  2   force =     0.00611934   -0.00353300   -0.01247544
     atom    3 type  2   force =    -0.00031639    0.00018267    0.02154354
     atom    4 type  1   force =     0.00449141   -0.00259312   -0.01371986
     atom    5 type  1   force =    -0.00554882    0.00320361    0.00203610

     Total force =     0.031097     Total SCF correction =     0.000795


     entering subroutine stress ...

          total   stress  (Ry/bohr**3)                   (kbar)     P= 1218.74
   0.00819117  -0.00002777   0.00006440       1204.96     -4.08      9.47
  -0.00002777   0.00815911  -0.00003718         -4.08   1200.25     -5.47
   0.00006440  -0.00003718   0.00850417          9.47     -5.47   1251.01


     number of scf cycles    =  10
     number of bfgs steps    =   9

     enthalpy old            =    -138.0714506475 Ry
     enthalpy new            =    -138.0777434929 Ry

     CASE: enthalpy_new < enthalpy_old

     new trust radius        =       0.0261485788 bohr
     new conv_thr            =       0.0000002154 Ry

     new unit-cell volume =    187.39391 a.u.^3 (    27.76891 Ang^3 )

CELL_PARAMETERS (alat=  5.86000000)
   1.016628061   0.137503614   0.069524653
  -0.389232408   0.949177534  -0.069524653
   0.149294023  -0.086194945   0.929110049

ATOMIC_POSITIONS (crystal)
Ca       0.000042863  -0.000042863   0.007196574
O        0.317525574   0.682474426   0.324258963
O        0.681649862   0.318350138   0.698693655
H        0.482431842   0.517568158   0.734825344
H        0.518349860   0.481650140   0.245025463



     Writing output data file CaOH2_ambient.save
     NEW-OLD atomic charge density approx. for the potential
     NEW k-points: (use verbosity='high' to print them)
     extrapolated charge   24.10466, renormalised to   24.00000

     total cpu time spent up to now is     4302.9 secs

     per-process dynamical memory:    17.6 Mb

     Self-consistent Calculation

     iteration #  1     ecut=   100.00 Ry     beta=0.30
     Davidson diagonalization with overlap
     ethr =  1.00E-06,  avg # of iterations =  4.8

     total cpu time spent up to now is     4355.6 secs

     total energy              =    -139.60685077 Ry
     Harris-Foulkes estimate   =    -139.56439638 Ry
     estimated scf accuracy    <       0.00100653 Ry

     iteration #  2     ecut=   100.00 Ry     beta=0.30
     Davidson diagonalization with overlap
     ethr =  4.19E-06,  avg # of iterations =  3.0

     total cpu time spent up to now is     4388.7 secs

     total energy              =    -139.60740078 Ry
     Harris-Foulkes estimate   =    -139.60744387 Ry
     estimated scf accuracy    <       0.00026946 Ry

     iteration #  3     ecut=   100.00 Ry     beta=0.30
     Davidson diagonalization with overlap
     ethr =  1.12E-06,  avg # of iterations =  1.0

     total cpu time spent up to now is     4409.6 secs

     total energy              =    -139.60730173 Ry
     Harris-Foulkes estimate   =    -139.60740468 Ry
     estimated scf accuracy    <       0.00016910 Ry

     iteration #  4     ecut=   100.00 Ry     beta=0.30
     Davidson diagonalization with overlap
     ethr =  7.05E-07,  avg # of iterations =  2.0

     total cpu time spent up to now is     4437.0 secs

     total energy              =    -139.60734104 Ry
     Harris-Foulkes estimate   =    -139.60734397 Ry
     estimated scf accuracy    <       0.00001628 Ry

     iteration #  5     ecut=   100.00 Ry     beta=0.30
     Davidson diagonalization with overlap
     ethr =  6.78E-08,  avg # of iterations =  1.2

     total cpu time spent up to now is     4457.9 secs

     total energy              =    -139.60733668 Ry
     Harris-Foulkes estimate   =    -139.60734151 Ry
     estimated scf accuracy    <       0.00000919 Ry

     iteration #  6     ecut=   100.00 Ry     beta=0.30
     Davidson diagonalization with overlap
     ethr =  3.83E-08,  avg # of iterations =  2.0

     total cpu time spent up to now is     4485.5 secs

     total energy              =    -139.60733912 Ry
     Harris-Foulkes estimate   =    -139.60733914 Ry
     estimated scf accuracy    <       0.00000050 Ry

     iteration #  7     ecut=   100.00 Ry     beta=0.30
     Davidson diagonalization with overlap
     ethr =  2.09E-09,  avg # of iterations =  1.4

     total cpu time spent up to now is     4506.5 secs

     total energy              =    -139.60733894 Ry
     Harris-Foulkes estimate   =    -139.60733914 Ry
     estimated scf accuracy    <       0.00000044 Ry

     iteration #  8     ecut=   100.00 Ry     beta=0.30
     Davidson diagonalization with overlap
     ethr =  1.84E-09,  avg # of iterations =  2.0

     total cpu time spent up to now is     4533.0 secs

     End of self-consistent calculation

     Number of k-points >= 100: set verbosity='high' to print the bands.

!    total energy              =    -139.60733900 Ry
     Harris-Foulkes estimate   =    -139.60733901 Ry
     estimated scf accuracy    <          7.8E-09 Ry

     The total energy is the sum of the following terms:

     one-electron contribution =     -10.22933106 Ry
     hartree contribution      =      22.38743308 Ry
     xc contribution           =     -26.81095264 Ry
     ewald contribution        =    -124.95448838 Ry

     convergence has been achieved in   8 iterations

     Forces acting on atoms (Ry/au):

     atom    1 type  3   force =    -0.00112156    0.00064754    0.00320034
     atom    2 type  2   force =    -0.00342725    0.00197872   -0.00084881
     atom    3 type  2   force =     0.00013477   -0.00007781    0.01060928
     atom    4 type  1   force =     0.00667736   -0.00385518   -0.01601601
     atom    5 type  1   force =    -0.00226333    0.00130673    0.00305520

     Total force =     0.021749     Total SCF correction =     0.000131


     entering subroutine stress ...

          total   stress  (Ry/bohr**3)                   (kbar)     P= 1202.48
   0.00815136  -0.00006679   0.00008368       1199.11     -9.82     12.31
  -0.00006679   0.00807424  -0.00004831         -9.82   1187.76     -7.11
   0.00008368  -0.00004831   0.00829736         12.31     -7.11   1220.58


     number of scf cycles    =  11
     number of bfgs steps    =  10

     enthalpy old            =    -138.0777434929 Ry
     enthalpy new            =    -138.0786852173 Ry

     CASE: enthalpy_new < enthalpy_old

     new trust radius        =       0.0233678569 bohr
     new conv_thr            =       0.0000000942 Ry

     new unit-cell volume =    188.02628 a.u.^3 (    27.86262 Ang^3 )

CELL_PARAMETERS (alat=  5.86000000)
   1.014280548   0.137206636   0.070736041
  -0.388315842   0.946996039  -0.070736041
   0.153410009  -0.088571310   0.937140042

ATOMIC_POSITIONS (crystal)
Ca      -0.000297076   0.000297076   0.007833668
O        0.317354862   0.682645138   0.322206839
O        0.681534883   0.318465117   0.702399740
H        0.482782616   0.517217384   0.732696772
H        0.518624715   0.481375285   0.244862980



     Writing output data file CaOH2_ambient.save
     NEW-OLD atomic charge density approx. for the potential
     NEW k-points: (use verbosity='high' to print them)
     extrapolated charge   24.07399, renormalised to   24.00000

     total cpu time spent up to now is     4623.4 secs

     per-process dynamical memory:    17.6 Mb

     Self-consistent Calculation

     iteration #  1     ecut=   100.00 Ry     beta=0.30
     Davidson diagonalization with overlap
     ethr =  1.00E-06,  avg # of iterations =  4.4

     total cpu time spent up to now is     4673.9 secs

     total energy              =    -139.61281431 Ry
     Harris-Foulkes estimate   =    -139.58194825 Ry
     estimated scf accuracy    <       0.00052010 Ry

     iteration #  2     ecut=   100.00 Ry     beta=0.30
     Davidson diagonalization with overlap
     ethr =  2.17E-06,  avg # of iterations =  3.0

     total cpu time spent up to now is     4706.2 secs

     total energy              =    -139.61308558 Ry
     Harris-Foulkes estimate   =    -139.61310966 Ry
     estimated scf accuracy    <       0.00015825 Ry

     iteration #  3     ecut=   100.00 Ry     beta=0.30
     Davidson diagonalization with overlap
     ethr =  6.59E-07,  avg # of iterations =  1.0

     total cpu time spent up to now is     4726.8 secs

     total energy              =    -139.61302912 Ry
     Harris-Foulkes estimate   =    -139.61308766 Ry
     estimated scf accuracy    <       0.00010033 Ry

     iteration #  4     ecut=   100.00 Ry     beta=0.30
     Davidson diagonalization with overlap
     ethr =  4.18E-07,  avg # of iterations =  2.0

     total cpu time spent up to now is     4755.9 secs

     total energy              =    -139.61305129 Ry
     Harris-Foulkes estimate   =    -139.61305297 Ry
     estimated scf accuracy    <       0.00000920 Ry

     iteration #  5     ecut=   100.00 Ry     beta=0.30
     Davidson diagonalization with overlap
     ethr =  3.83E-08,  avg # of iterations =  1.2

     total cpu time spent up to now is     4776.8 secs

     total energy              =    -139.61304890 Ry
     Harris-Foulkes estimate   =    -139.61305157 Ry
     estimated scf accuracy    <       0.00000510 Ry

     iteration #  6     ecut=   100.00 Ry     beta=0.30
     Davidson diagonalization with overlap
     ethr =  2.12E-08,  avg # of iterations =  2.0

[...]

     iteration #  5     ecut=   100.00 Ry     beta=0.30
     Davidson diagonalization with overlap
     ethr =  9.28E-11,  avg # of iterations =  1.0

     total cpu time spent up to now is    14673.2 secs

     total energy              =    -139.61219479 Ry
     Harris-Foulkes estimate   =    -139.61219480 Ry
     estimated scf accuracy    <       0.00000001 Ry

     iteration #  6     ecut=   100.00 Ry     beta=0.30
     Davidson diagonalization with overlap
     ethr =  4.79E-11,  avg # of iterations =  2.0

     total cpu time spent up to now is    14701.2 secs

     End of self-consistent calculation

     Number of k-points >= 100: set verbosity='high' to print the bands.

!    total energy              =    -139.61219479 Ry
     Harris-Foulkes estimate   =    -139.61219479 Ry
     estimated scf accuracy    <          2.0E-09 Ry

     The total energy is the sum of the following terms:

     one-electron contribution =      -7.75000353 Ry
     hartree contribution      =      21.42967069 Ry
     xc contribution           =     -26.81184302 Ry
     ewald contribution        =    -126.48001894 Ry

     convergence has been achieved in   6 iterations

     Forces acting on atoms (Ry/au):

     atom    1 type  3   force =     0.00062862   -0.00036293   -0.00047066
     atom    2 type  2   force =     0.00009597   -0.00005541    0.00002021
     atom    3 type  2   force =    -0.00050774    0.00029314    0.00007479
     atom    4 type  1   force =     0.00024072   -0.00013898    0.00014611
     atom    5 type  1   force =    -0.00045757    0.00026418    0.00022955

     Total force =     0.001241     Total SCF correction =     0.000045


     entering subroutine stress ...

          total   stress  (Ry/bohr**3)                   (kbar)     P= 1199.42
   0.00815164   0.00000200   0.00000031       1199.15      0.29      0.05
   0.00000200   0.00815395  -0.00000018          0.29   1199.49     -0.03
   0.00000031  -0.00000018   0.00815487          0.05     -0.03   1199.62


     number of scf cycles    =  44
     number of bfgs steps    =  42

     enthalpy old            =    -138.1228702176 Ry
     enthalpy new            =    -138.1228720166 Ry

     CASE: enthalpy_new < enthalpy_old

     new trust radius        =       0.0013487343 bohr
     new conv_thr            =       0.0000000100 Ry

     new unit-cell volume =    182.55947 a.u.^3 (    27.05252 Ang^3 )

CELL_PARAMETERS (alat=  5.86000000)
   0.898143664   0.208094877   0.099087600
  -0.268856382   0.881862668  -0.099087600
   0.259467404  -0.149803575   1.113910294

ATOMIC_POSITIONS (crystal)
Ca      -0.000359884   0.000359884   0.102939317
O        0.318065940   0.681934060   0.429698334
O        0.682341597   0.317658403   0.774708341
H        0.499058523   0.500941477   0.601791439
H        0.500893824   0.499106176   0.100862569



     Writing output data file CaOH2_ambient.save
     NEW-OLD atomic charge density approx. for the potential
     NEW k-points: (use verbosity='high' to print them)
     extrapolated charge   23.99844, renormalised to   24.00000

     total cpu time spent up to now is    14791.6 secs

     per-process dynamical memory:    17.6 Mb

     Self-consistent Calculation

     iteration #  1     ecut=   100.00 Ry     beta=0.30
     Davidson diagonalization with overlap
     ethr =  1.00E-06,  avg # of iterations =  2.0

     Threshold (ethr) on eigenvalues was too large:
     Diagonalizing with lowered threshold

     Davidson diagonalization with overlap
     ethr =  1.73E-09,  avg # of iterations =  3.0

     total cpu time spent up to now is    14850.1 secs

     total energy              =    -139.61208986 Ry
     Harris-Foulkes estimate   =    -139.61260888 Ry
     estimated scf accuracy    <       0.00000042 Ry

     iteration #  2     ecut=   100.00 Ry     beta=0.30
     Davidson diagonalization with overlap
     ethr =  1.74E-09,  avg # of iterations =  2.0

     total cpu time spent up to now is    14881.0 secs

     total energy              =    -139.61208997 Ry
     Harris-Foulkes estimate   =    -139.61208999 Ry
     estimated scf accuracy    <       0.00000016 Ry

     iteration #  3     ecut=   100.00 Ry     beta=0.30
     Davidson diagonalization with overlap
     ethr =  6.74E-10,  avg # of iterations =  1.0

     total cpu time spent up to now is    14901.7 secs

     total energy              =    -139.61208994 Ry
     Harris-Foulkes estimate   =    -139.61208997 Ry
     estimated scf accuracy    <       0.00000010 Ry

     iteration #  4     ecut=   100.00 Ry     beta=0.30
     Davidson diagonalization with overlap
     ethr =  4.00E-10,  avg # of iterations =  2.0

     total cpu time spent up to now is    14927.4 secs

     End of self-consistent calculation

     Number of k-points >= 100: set verbosity='high' to print the bands.

!    total energy              =    -139.61208995 Ry
     Harris-Foulkes estimate   =    -139.61208995 Ry
     estimated scf accuracy    <          3.1E-09 Ry

     The total energy is the sum of the following terms:

     one-electron contribution =      -7.74529419 Ry
     hartree contribution      =      21.42850664 Ry
     xc contribution           =     -26.81209421 Ry
     ewald contribution        =    -126.48320817 Ry

     convergence has been achieved in   4 iterations

     Forces acting on atoms (Ry/au):

     atom    1 type  3   force =     0.00065157   -0.00037619   -0.00062124
     atom    2 type  2   force =     0.00003221   -0.00001860    0.00014722
     atom    3 type  2   force =    -0.00048069    0.00027752    0.00017520
     atom    4 type  1   force =     0.00018622   -0.00010751    0.00013367
     atom    5 type  1   force =    -0.00038931    0.00022477    0.00016515

     Total force =     0.001268     Total SCF correction =     0.000080


     entering subroutine stress ...

          total   stress  (Ry/bohr**3)                   (kbar)     P= 1199.91
   0.00815491   0.00000196   0.00000025       1199.63      0.29      0.04
   0.00000196   0.00815717  -0.00000015          0.29   1199.96     -0.02
   0.00000025  -0.00000015   0.00815839          0.04     -0.02   1200.14


     bfgs converged in  45 scf cycles and  43 bfgs steps
     (criteria: energy < 0.10E-03, force < 0.10E-02, cell < 0.50E+00)

     End of BFGS Geometry Optimization

     Final enthalpy =    -138.1228728359 Ry
Begin final coordinates
     new unit-cell volume =    182.55947 a.u.^3 (    27.05252 Ang^3 )

CELL_PARAMETERS (alat=  5.86000000)
   0.898143664   0.208094877   0.099087600
  -0.268856382   0.881862668  -0.099087600
   0.259467404  -0.149803575   1.113910294

ATOMIC_POSITIONS (crystal)
Ca      -0.000359884   0.000359884   0.102939317
O        0.318065940   0.681934060   0.429698334
O        0.682341597   0.317658403   0.774708341
H        0.499058523   0.500941477   0.601791439
H        0.500893824   0.499106176   0.100862569
End final coordinates



     A final scf calculation at the relaxed structure.
     The G-vectors are recalculated for the final unit cell
     Results may differ from those at the preceding step.

     G-vector sticks info
     --------------------
     sticks:   dense  smooth     PW     G-vecs:    dense   smooth      PW
     Sum         747     747    303                17631    17631    4495



     bravais-lattice index     =            4
     lattice parameter (alat)  =       5.8600  a.u.
     unit-cell volume          =     182.5595 (a.u.)^3
     number of atoms/cell      =            5
     number of atomic types    =            3
     number of electrons       =        24.00
     number of Kohn-Sham states=           12
     kinetic-energy cutoff     =     100.0000  Ry
     charge density cutoff     =     320.0000  Ry
     convergence threshold     =      1.0E-08
     mixing beta               =       0.3000
     number of iterations used =           16  local-TF  mixing
     Exchange-correlation      = PBE ( 1 4 3 4 0)
     EXX-fraction              =        0.00

     celldm(1)=   5.860000  celldm(2)=   0.000000  celldm(3)=   1.332000
     celldm(4)=   0.000000  celldm(5)=   0.000000  celldm(6)=   0.000000

     crystal axes: (cart. coord. in units of alat)
               a(1) = (   0.898144   0.208095   0.099088 )  
               a(2) = (  -0.268856   0.881863  -0.099088 )  
               a(3) = (   0.259467  -0.149804   1.113910 )  

     reciprocal axes: (cart. coord. in units 2 pi/alat)
               b(1) = (  1.066417  0.301771 -0.207821 )  
               b(2) = ( -0.271867  1.074430  0.207821 )  
               b(3) = ( -0.119047  0.068732  0.934712 )  


     PseudoPot. # 1 for H  read from file:
     /home/ilia/espresso/pseudo/H.pbe-sp-mt.ncpp
     MD5 check sum: 7a641936b52ccecd26bd1ad87cca5aed
     Pseudo is Norm-conserving, Zval =  1.0
     Generated by old ld1 code (numerical format)
     Using radial grid of 1076 points,  0 beta functions with: 

     PseudoPot. # 2 for O  read from file:
     /home/ilia/espresso/pseudo/O.pbe-sp-mt.ncpp
     MD5 check sum: 8a3d23d410d2f3ebfd0a39faacc72cbb
     Pseudo is Norm-conserving, Zval =  6.0
     Generated by old ld1 code (numerical format)
     Using radial grid of 1130 points,  1 beta functions with: 
                l(1) =   1

     PseudoPot. # 3 for Ca read from file:
     /home/ilia/espresso/pseudo/Ca.pbe-sp-mt_ion2.ncpp
     MD5 check sum: 4bcd670d05521f7b178fdf0a334578ab
     Pseudo is Norm-conserving, Zval = 10.0
     Generated by old ld1 code (numerical format)
     Using radial grid of 1153 points,  1 beta functions with: 
                l(1) =   1

     atomic species   valence    mass     pseudopotential
        H              1.00     1.00700     H ( 1.00)
        O              6.00    16.00000     O ( 1.00)
        Ca            10.00    40.07800     Ca( 1.00)

      2 Sym. Ops. (no inversion) found



   Cartesian axes

     site n.     atom                  positions (alat units)
         1           Ca  tau(   1) = (   0.0262894  -0.0151782   0.1145938  )
         2           O   tau(   2) = (   0.2138193   0.6031897   0.4425906  )
         3           O   tau(   3) = (   0.7284479   0.3060688   0.8990912  )
         4           H   tau(   4) = (   0.4696902   0.4554626   0.6701551  )
         5           H   tau(   5) = (   0.3418573   0.5292670   0.1125290  )

     number of k points=   171

     Number of k-points >= 100: set verbosity='high' to print them.

     Dense  grid:    17631 G-vectors     FFT dimensions: (  32,  32,  40)

     Largest allocated arrays     est. size (Mb)     dimensions
        Kohn-Sham Wavefunctions         0.57 Mb     (   3103,   12)
        NL pseudopotentials             0.43 Mb     (   3103,    9)
        Each V/rho on FFT grid          0.62 Mb     (  40960)
        Each G-vector array             0.13 Mb     (  17631)
        G-vector shells                 0.03 Mb     (   4572)
     Largest temporary arrays     est. size (Mb)     dimensions
        Auxiliary wavefunctions         2.27 Mb     (   3103,   48)
        Each subspace H/S matrix        0.04 Mb     (  48,  48)
        Each <psi_i|beta_j> matrix      0.00 Mb     (      9,   12)
        Arrays for rho mixing          10.00 Mb     (  40960,  16)

     Initial potential from superposition of free atoms

     starting charge   21.99998, renormalised to   24.00000
     Starting wfc are   14 randomized atomic wfcs

     Writing output data file CaOH2_ambient.save

     total cpu time spent up to now is    14996.0 secs

     per-process dynamical memory:    18.1 Mb

     Self-consistent Calculation

     iteration #  1     ecut=   100.00 Ry     beta=0.30
     Davidson diagonalization with overlap
     ethr =  1.00E-06,  avg # of iterations =  5.8

     total cpu time spent up to now is    15043.5 secs

     total energy              =    -139.78095920 Ry
     Harris-Foulkes estimate   =    -139.87244577 Ry
     estimated scf accuracy    <       0.49182575 Ry

     iteration #  2     ecut=   100.00 Ry     beta=0.30
     Davidson diagonalization with overlap
     ethr =  2.05E-03,  avg # of iterations =  1.0

     total cpu time spent up to now is    15058.3 secs

     total energy              =    -139.56738111 Ry
     Harris-Foulkes estimate   =    -139.78504498 Ry
     estimated scf accuracy    <       0.31631970 Ry

     iteration #  3     ecut=   100.00 Ry     beta=0.30
     Davidson diagonalization with overlap
     ethr =  1.32E-03,  avg # of iterations =  2.0

     total cpu time spent up to now is    15078.1 secs

     total energy              =    -139.62758367 Ry
     Harris-Foulkes estimate   =    -139.62994800 Ry
     estimated scf accuracy    <       0.01457727 Ry

     iteration #  4     ecut=   100.00 Ry     beta=0.30
     Davidson diagonalization with overlap
     ethr =  6.07E-05,  avg # of iterations =  1.4

     total cpu time spent up to now is    15092.1 secs

     total energy              =    -139.62689039 Ry
     Harris-Foulkes estimate   =    -139.62835374 Ry
     estimated scf accuracy    <       0.00358202 Ry

     iteration #  5     ecut=   100.00 Ry     beta=0.30
     Davidson diagonalization with overlap
     ethr =  1.49E-05,  avg # of iterations =  2.0

     total cpu time spent up to now is    15109.5 secs

     total energy              =    -139.62737805 Ry
     Harris-Foulkes estimate   =    -139.62738993 Ry
     estimated scf accuracy    <       0.00064501 Ry

     iteration #  6     ecut=   100.00 Ry     beta=0.30
     Davidson diagonalization with overlap
     ethr =  2.69E-06,  avg # of iterations =  1.0

     total cpu time spent up to now is    15123.2 secs

     total energy              =    -139.62722943 Ry
     Harris-Foulkes estimate   =    -139.62738211 Ry
     estimated scf accuracy    <       0.00061096 Ry

     iteration #  7     ecut=   100.00 Ry     beta=0.30
     Davidson diagonalization with overlap
     ethr =  2.55E-06,  avg # of iterations =  2.0

     total cpu time spent up to now is    15137.9 secs

     total energy              =    -139.62717459 Ry
     Harris-Foulkes estimate   =    -139.62726442 Ry
     estimated scf accuracy    <       0.00017966 Ry

     iteration #  8     ecut=   100.00 Ry     beta=0.30
     Davidson diagonalization with overlap
     ethr =  7.49E-07,  avg # of iterations =  2.2

     total cpu time spent up to now is    15156.5 secs

     total energy              =    -139.62722491 Ry
     Harris-Foulkes estimate   =    -139.62724442 Ry
     estimated scf accuracy    <       0.00005530 Ry

     iteration #  9     ecut=   100.00 Ry     beta=0.30
     Davidson diagonalization with overlap
     ethr =  2.30E-07,  avg # of iterations =  2.0

     total cpu time spent up to now is    15171.6 secs

     total energy              =    -139.62722397 Ry
     Harris-Foulkes estimate   =    -139.62722899 Ry
     estimated scf accuracy    <       0.00000967 Ry

     iteration # 10     ecut=   100.00 Ry     beta=0.30
     Davidson diagonalization with overlap
     ethr =  4.03E-08,  avg # of iterations =  2.2

     total cpu time spent up to now is    15190.5 secs

     total energy              =    -139.62722689 Ry
     Harris-Foulkes estimate   =    -139.62722706 Ry
     estimated scf accuracy    <       0.00000085 Ry

     iteration # 11     ecut=   100.00 Ry     beta=0.30
     Davidson diagonalization with overlap
     ethr =  3.53E-09,  avg # of iterations =  1.6

     total cpu time spent up to now is    15204.8 secs

     total energy              =    -139.62722679 Ry
     Harris-Foulkes estimate   =    -139.62722693 Ry
     estimated scf accuracy    <       0.00000036 Ry

     iteration # 12     ecut=   100.00 Ry     beta=0.30
     Davidson diagonalization with overlap
     ethr =  1.50E-09,  avg # of iterations =  2.0

     total cpu time spent up to now is    15222.9 secs

     total energy              =    -139.62722686 Ry
     Harris-Foulkes estimate   =    -139.62722686 Ry
     estimated scf accuracy    <       0.00000001 Ry

     iteration # 13     ecut=   100.00 Ry     beta=0.30
     Davidson diagonalization with overlap
     ethr =  4.92E-11,  avg # of iterations =  2.0

     total cpu time spent up to now is    15238.8 secs

     total energy              =    -139.62722686 Ry
     Harris-Foulkes estimate   =    -139.62722686 Ry
     estimated scf accuracy    <       0.00000002 Ry

     iteration # 14     ecut=   100.00 Ry     beta=0.30
     Davidson diagonalization with overlap
     ethr =  4.92E-11,  avg # of iterations =  2.0

     total cpu time spent up to now is    15254.7 secs

     End of self-consistent calculation

     Number of k-points >= 100: set verbosity='high' to print the bands.

!    total energy              =    -139.62722686 Ry
     Harris-Foulkes estimate   =    -139.62722686 Ry
     estimated scf accuracy    <          1.7E-09 Ry

     The total energy is the sum of the following terms:

     one-electron contribution =      -7.77077112 Ry
     hartree contribution      =      21.43967092 Ry
     xc contribution           =     -26.81291850 Ry
     ewald contribution        =    -126.48320815 Ry

     convergence has been achieved in  14 iterations

     Forces acting on atoms (Ry/au):

     atom    1 type  3   force =     0.00070392   -0.00040641   -0.00075047
     atom    2 type  2   force =     0.00123680   -0.00071407    0.00060243
     atom    3 type  2   force =    -0.00187355    0.00108170   -0.00004072
     atom    4 type  1   force =     0.00025492   -0.00014718    0.00007491
     atom    5 type  1   force =    -0.00032209    0.00018596    0.00011384

     Total force =     0.002924     Total SCF correction =     0.000058


     entering subroutine stress ...

          total   stress  (Ry/bohr**3)                   (kbar)     P= 1269.75
   0.00852333   0.00053687   0.00006384       1253.82     78.98      9.39
   0.00053687   0.00914325  -0.00003686         78.98   1345.02     -5.42
   0.00006384  -0.00003686   0.00822824          9.39     -5.42   1210.42


     Writing output data file CaOH2_ambient.save

     init_run     :     61.25s CPU     62.90s WALL (       2 calls)
     electrons    :  10890.23s CPU  11154.05s WALL (      46 calls)
     update_pot   :   1741.31s CPU   1757.93s WALL (      44 calls)
     forces       :    642.57s CPU    646.96s WALL (      46 calls)
     stress       :   1623.36s CPU   1631.51s WALL (      46 calls)

     Called by init_run:
     wfcinit      :     24.04s CPU     24.61s WALL (       2 calls)
     potinit      :     15.56s CPU     15.86s WALL (       2 calls)

     Called by electrons:
     c_bands      :   9435.58s CPU   9656.88s WALL (     393 calls)
     sum_band     :   1386.85s CPU   1425.55s WALL (     393 calls)
     v_of_rho     :     38.59s CPU     39.54s WALL (     432 calls)
     mix_rho      :     31.68s CPU     33.13s WALL (     393 calls)

     Called by c_bands:
     init_us_2    :    398.59s CPU    434.61s WALL (  150480 calls)
     cegterg      :   9214.87s CPU   9293.63s WALL (   67203 calls)

     Called by *egterg:
     h_psi        :   6665.23s CPU   6714.09s WALL (  218253 calls)
     g_psi        :     85.35s CPU     86.52s WALL (  150708 calls)
     cdiaghg      :    105.97s CPU    108.37s WALL (  209190 calls)

     Called by h_psi:
     add_vuspsi   :    231.41s CPU    233.17s WALL (  218253 calls)

     General routines
     calbec       :    252.96s CPU    255.17s WALL (  233985 calls)
     fft          :      9.56s CPU      9.64s WALL (    5132 calls)
     ffts         :     12.59s CPU     12.71s WALL (    6966 calls)
     fftw         :   6400.87s CPU   6444.53s WALL ( 5227564 calls)
     davcio       :     51.60s CPU    184.94s WALL (  217683 calls)


     PWSCF        :     4h 9m CPU        4h14m WALL


   This run was terminated on:  13:12:40  25Apr2014            

=------------------------------------------------------------------------------=
   JOB DONE.
=------------------------------------------------------------------------------=
