
     Program PWSCF v.5.0.2 (svn rev. 9392) starts on 25Apr2014 at 13:12:40 

     This program is part of the open-source Quantum ESPRESSO suite
     for quantum simulation of materials; please cite
         "P. Giannozzi et al., J. Phys.:Condens. Matter 21 395502 (2009);
          URL http://www.quantum-espresso.org", 
     in publications or presentations arising from this work. More details at
     http://www.quantum-espresso.org/quote.php

     Serial version

     Current dimensions of program PWSCF are:
     Max number of different atomic species (ntypx) = 10
     Max number of k-points (npk) =  40000
     Max angular momentum in pseudopotentials (lmaxx) =  3
     Waiting for input...
     Reading input from standard input

     G-vector sticks info
     --------------------
     sticks:   dense  smooth     PW     G-vecs:    dense   smooth      PW
     Sum         757     757    283                22473    22473    5157



     bravais-lattice index     =            4
     lattice parameter (alat)  =       5.8600  a.u.
     unit-cell volume          =     232.1281 (a.u.)^3
     number of atoms/cell      =            5
     number of atomic types    =            3
     number of electrons       =        24.00
     number of Kohn-Sham states=           12
     kinetic-energy cutoff     =     100.0000  Ry
     charge density cutoff     =     320.0000  Ry
     convergence threshold     =      1.0E-06
     mixing beta               =       0.3000
     number of iterations used =           16  local-TF  mixing
     Exchange-correlation      = PBE ( 1 4 3 4 0)
     EXX-fraction              =        0.00
     nstep                     =           50


     celldm(1)=   5.860000  celldm(2)=   0.000000  celldm(3)=   1.332000
     celldm(4)=   0.000000  celldm(5)=   0.000000  celldm(6)=   0.000000

     crystal axes: (cart. coord. in units of alat)
               a(1) = (   1.000000   0.000000   0.000000 )  
               a(2) = (  -0.500000   0.866025   0.000000 )  
               a(3) = (   0.000000   0.000000   1.332000 )  

     reciprocal axes: (cart. coord. in units 2 pi/alat)
               b(1) = (  1.000000  0.577350 -0.000000 )  
               b(2) = (  0.000000  1.154701  0.000000 )  
               b(3) = (  0.000000 -0.000000  0.750751 )  


     PseudoPot. # 1 for H  read from file:
     /home/ilia/espresso/pseudo/H.pbe-sp-mt.ncpp
     MD5 check sum: 7a641936b52ccecd26bd1ad87cca5aed
     Pseudo is Norm-conserving, Zval =  1.0
     Generated by old ld1 code (numerical format)
     Using radial grid of 1076 points,  0 beta functions with: 

     PseudoPot. # 2 for O  read from file:
     /home/ilia/espresso/pseudo/O.pbe-sp-mt.ncpp
     MD5 check sum: 8a3d23d410d2f3ebfd0a39faacc72cbb
     Pseudo is Norm-conserving, Zval =  6.0
     Generated by old ld1 code (numerical format)
     Using radial grid of 1130 points,  1 beta functions with: 
                l(1) =   1

     PseudoPot. # 3 for Ca read from file:
     /home/ilia/espresso/pseudo/Ca.pbe-sp-mt_ion2.ncpp
     MD5 check sum: 4bcd670d05521f7b178fdf0a334578ab
     Pseudo is Norm-conserving, Zval = 10.0
     Generated by old ld1 code (numerical format)
     Using radial grid of 1153 points,  1 beta functions with: 
                l(1) =   1

     atomic species   valence    mass     pseudopotential
        H              1.00     1.00700     H ( 1.00)
        O              6.00    16.00000     O ( 1.00)
        Ca            10.00    40.07800     Ca( 1.00)

      2 Sym. Ops. (no inversion) found



   Cartesian axes

     site n.     atom                  positions (alat units)
         1           Ca  tau(   1) = (   0.0000000   0.0000000   0.0000000  )
         2           O   tau(   2) = (   0.0000000   0.5773503   0.6287040  )
         3           O   tau(   3) = (   0.5000000   0.2886751   0.7166160  )
         4           H   tau(   4) = (   0.2500000   0.4330127   0.9430560  )
         5           H   tau(   5) = (   0.2500000   0.4330127   0.3889440  )

     number of k points=   171

     Number of k-points >= 100: set verbosity='high' to print them.

     Dense  grid:    22473 G-vectors     FFT dimensions: (  36,  36,  45)

     Largest allocated arrays     est. size (Mb)     dimensions
        Kohn-Sham Wavefunctions         0.72 Mb     (   3953,   12)
        NL pseudopotentials             0.54 Mb     (   3953,    9)
        Each V/rho on FFT grid          0.89 Mb     (  58320)
        Each G-vector array             0.17 Mb     (  22473)
        G-vector shells                 0.17 Mb     (  22473)
     Largest temporary arrays     est. size (Mb)     dimensions
        Auxiliary wavefunctions         2.90 Mb     (   3953,   48)
        Each subspace H/S matrix        0.04 Mb     (  48,  48)
        Each <psi_i|beta_j> matrix      0.00 Mb     (      9,   12)
        Arrays for rho mixing          14.24 Mb     (  58320,  16)

     Initial potential from superposition of free atoms

     starting charge   21.99998, renormalised to   24.00000
     Starting wfc are   14 randomized atomic wfcs

     total cpu time spent up to now is       48.3 secs

     per-process dynamical memory:    14.1 Mb

     Self-consistent Calculation

     iteration #  1     ecut=   100.00 Ry     beta=0.30
     Davidson diagonalization with overlap
     ethr =  1.00E-02,  avg # of iterations =  4.1

     total cpu time spent up to now is       84.2 secs

     total energy              =    -139.04604779 Ry
     Harris-Foulkes estimate   =    -139.19520853 Ry
     estimated scf accuracy    <       0.76764974 Ry

     iteration #  2     ecut=   100.00 Ry     beta=0.30
     Davidson diagonalization with overlap
     ethr =  3.20E-03,  avg # of iterations =  1.5

     total cpu time spent up to now is      105.7 secs

     total energy              =    -138.81238727 Ry
     Harris-Foulkes estimate   =    -139.08442427 Ry
     estimated scf accuracy    <       0.45626081 Ry

     iteration #  3     ecut=   100.00 Ry     beta=0.30
     Davidson diagonalization with overlap
     ethr =  1.90E-03,  avg # of iterations =  3.4

     total cpu time spent up to now is      138.6 secs

     total energy              =    -138.97739731 Ry
     Harris-Foulkes estimate   =    -139.01456566 Ry
     estimated scf accuracy    <       0.28262335 Ry

     iteration #  4     ecut=   100.00 Ry     beta=0.30
     Davidson diagonalization with overlap
     ethr =  1.18E-03,  avg # of iterations =  1.0

     total cpu time spent up to now is      159.4 secs

     total energy              =    -138.91867837 Ry
     Harris-Foulkes estimate   =    -138.98181762 Ry
     estimated scf accuracy    <       0.17316922 Ry

     iteration #  5     ecut=   100.00 Ry     beta=0.30
     Davidson diagonalization with overlap
     ethr =  7.22E-04,  avg # of iterations =  2.8

     total cpu time spent up to now is      185.7 secs

     total energy              =    -138.94915033 Ry
     Harris-Foulkes estimate   =    -138.95012465 Ry
     estimated scf accuracy    <       0.00696325 Ry

     iteration #  6     ecut=   100.00 Ry     beta=0.30
     Davidson diagonalization with overlap
     ethr =  2.90E-05,  avg # of iterations =  2.8

     total cpu time spent up to now is      209.1 secs

     total energy              =    -138.95064046 Ry
     Harris-Foulkes estimate   =    -138.95148751 Ry
     estimated scf accuracy    <       0.00313543 Ry

     iteration #  7     ecut=   100.00 Ry     beta=0.30
     Davidson diagonalization with overlap
     ethr =  1.31E-05,  avg # of iterations =  3.7

     total cpu time spent up to now is      235.3 secs

     total energy              =    -138.95194852 Ry
     Harris-Foulkes estimate   =    -138.95186006 Ry
     estimated scf accuracy    <       0.00288823 Ry

     iteration #  8     ecut=   100.00 Ry     beta=0.30
     Davidson diagonalization with overlap
     ethr =  1.20E-05,  avg # of iterations =  1.0

     total cpu time spent up to now is      258.4 secs

     total energy              =    -138.95101230 Ry
     Harris-Foulkes estimate   =    -138.95197478 Ry
     estimated scf accuracy    <       0.00334134 Ry

     iteration #  9     ecut=   100.00 Ry     beta=0.30
     Davidson diagonalization with overlap
     ethr =  1.20E-05,  avg # of iterations =  3.0

     total cpu time spent up to now is      282.6 secs

     total energy              =    -138.95149264 Ry
     Harris-Foulkes estimate   =    -138.95151907 Ry
     estimated scf accuracy    <       0.00023478 Ry

     iteration # 10     ecut=   100.00 Ry     beta=0.30
     Davidson diagonalization with overlap
     ethr =  9.78E-07,  avg # of iterations =  2.8

     total cpu time spent up to now is      306.6 secs

     total energy              =    -138.95151954 Ry
     Harris-Foulkes estimate   =    -138.95152716 Ry
     estimated scf accuracy    <       0.00018343 Ry

     iteration # 11     ecut=   100.00 Ry     beta=0.30
     Davidson diagonalization with overlap
     ethr =  7.64E-07,  avg # of iterations =  1.0

     total cpu time spent up to now is      328.7 secs

     total energy              =    -138.95147085 Ry
     Harris-Foulkes estimate   =    -138.95152067 Ry
     estimated scf accuracy    <       0.00016055 Ry

     iteration # 12     ecut=   100.00 Ry     beta=0.30
     Davidson diagonalization with overlap
     ethr =  6.69E-07,  avg # of iterations =  3.8

     total cpu time spent up to now is      354.0 secs

     total energy              =    -138.95158602 Ry
     Harris-Foulkes estimate   =    -138.95158884 Ry
     estimated scf accuracy    <       0.00008812 Ry

     iteration # 13     ecut=   100.00 Ry     beta=0.30
     Davidson diagonalization with overlap
     ethr =  3.67E-07,  avg # of iterations =  1.0

     total cpu time spent up to now is      374.8 secs

     total energy              =    -138.95157252 Ry
     Harris-Foulkes estimate   =    -138.95158659 Ry
     estimated scf accuracy    <       0.00008138 Ry

     iteration # 14     ecut=   100.00 Ry     beta=0.30
     Davidson diagonalization with overlap
     ethr =  3.39E-07,  avg # of iterations =  2.2

     total cpu time spent up to now is      397.0 secs

     total energy              =    -138.95157721 Ry
     Harris-Foulkes estimate   =    -138.95157782 Ry
     estimated scf accuracy    <       0.00000643 Ry

     iteration # 15     ecut=   100.00 Ry     beta=0.30
     Davidson diagonalization with overlap
     ethr =  2.68E-08,  avg # of iterations =  3.5

     total cpu time spent up to now is      421.7 secs

     total energy              =    -138.95168819 Ry
     Harris-Foulkes estimate   =    -138.95168799 Ry
     estimated scf accuracy    <       0.00001236 Ry

     iteration # 16     ecut=   100.00 Ry     beta=0.30
     Davidson diagonalization with overlap
     ethr =  2.68E-08,  avg # of iterations =  1.0

     total cpu time spent up to now is      444.1 secs

     total energy              =    -138.95168662 Ry
     Harris-Foulkes estimate   =    -138.95168822 Ry
     estimated scf accuracy    <       0.00001251 Ry

     iteration # 17     ecut=   100.00 Ry     beta=0.30
     Davidson diagonalization with overlap
     ethr =  2.68E-08,  avg # of iterations =  3.3

     total cpu time spent up to now is      469.8 secs

     total energy              =    -138.95168789 Ry
     Harris-Foulkes estimate   =    -138.95168824 Ry
     estimated scf accuracy    <       0.00000704 Ry

     iteration # 18     ecut=   100.00 Ry     beta=0.30
     Davidson diagonalization with overlap
     ethr =  2.68E-08,  avg # of iterations =  1.0

     total cpu time spent up to now is      490.7 secs

     total energy              =    -138.95168753 Ry
     Harris-Foulkes estimate   =    -138.95168795 Ry
     estimated scf accuracy    <       0.00000604 Ry

     iteration # 19     ecut=   100.00 Ry     beta=0.30
     Davidson diagonalization with overlap
     ethr =  2.52E-08,  avg # of iterations =  2.4

     total cpu time spent up to now is      513.1 secs

     total energy              =    -138.95168795 Ry
     Harris-Foulkes estimate   =    -138.95168817 Ry
     estimated scf accuracy    <       0.00000803 Ry

     iteration # 20     ecut=   100.00 Ry     beta=0.30
     Davidson diagonalization with overlap
     ethr =  2.52E-08,  avg # of iterations =  1.0

     total cpu time spent up to now is      534.1 secs

     total energy              =    -138.95168788 Ry
     Harris-Foulkes estimate   =    -138.95168798 Ry
     estimated scf accuracy    <       0.00000744 Ry

     iteration # 21     ecut=   100.00 Ry     beta=0.30
     Davidson diagonalization with overlap
     ethr =  2.52E-08,  avg # of iterations =  1.0

     total cpu time spent up to now is      555.4 secs

     total energy              =    -138.95168778 Ry
     Harris-Foulkes estimate   =    -138.95168789 Ry
     estimated scf accuracy    <       0.00000709 Ry

     iteration # 22     ecut=   100.00 Ry     beta=0.30
     Davidson diagonalization with overlap
     ethr =  2.52E-08,  avg # of iterations =  1.0

     total cpu time spent up to now is      576.2 secs

     total energy              =    -138.95168770 Ry
     Harris-Foulkes estimate   =    -138.95168779 Ry
     estimated scf accuracy    <       0.00000673 Ry

     iteration # 23     ecut=   100.00 Ry     beta=0.30
     Davidson diagonalization with overlap
     ethr =  2.52E-08,  avg # of iterations =  1.0

     total cpu time spent up to now is      597.2 secs

     total energy              =    -138.95168783 Ry
     Harris-Foulkes estimate   =    -138.95168770 Ry
     estimated scf accuracy    <       0.00000644 Ry

     iteration # 24     ecut=   100.00 Ry     beta=0.30
     Davidson diagonalization with overlap
     ethr =  2.52E-08,  avg # of iterations =  1.0

     total cpu time spent up to now is      618.0 secs

     total energy              =    -138.95168768 Ry
     Harris-Foulkes estimate   =    -138.95168784 Ry
     estimated scf accuracy    <       0.00000676 Ry

     iteration # 25     ecut=   100.00 Ry     beta=0.30
     Davidson diagonalization with overlap
     ethr =  2.52E-08,  avg # of iterations =  1.0

     total cpu time spent up to now is      638.9 secs

     total energy              =    -138.95168740 Ry
     Harris-Foulkes estimate   =    -138.95168768 Ry
     estimated scf accuracy    <       0.00000628 Ry

     iteration # 26     ecut=   100.00 Ry     beta=0.30
     Davidson diagonalization with overlap
     ethr =  2.52E-08,  avg # of iterations =  1.0

     total cpu time spent up to now is      661.9 secs

     total energy              =    -138.95168720 Ry
     Harris-Foulkes estimate   =    -138.95168741 Ry
     estimated scf accuracy    <       0.00000546 Ry

     iteration # 27     ecut=   100.00 Ry     beta=0.30
     Davidson diagonalization with overlap
     ethr =  2.28E-08,  avg # of iterations =  1.0

     total cpu time spent up to now is      682.8 secs

     total energy              =    -138.95168728 Ry
     Harris-Foulkes estimate   =    -138.95168721 Ry
     estimated scf accuracy    <       0.00000481 Ry

     iteration # 28     ecut=   100.00 Ry     beta=0.30
     Davidson diagonalization with overlap
     ethr =  2.00E-08,  avg # of iterations =  1.0

     total cpu time spent up to now is      703.6 secs

     total energy              =    -138.95168718 Ry
     Harris-Foulkes estimate   =    -138.95168729 Ry
     estimated scf accuracy    <       0.00000494 Ry

     iteration # 29     ecut=   100.00 Ry     beta=0.30
     Davidson diagonalization with overlap
     ethr =  2.00E-08,  avg # of iterations =  1.0

     total cpu time spent up to now is      724.5 secs

     total energy              =    -138.95168772 Ry
     Harris-Foulkes estimate   =    -138.95168719 Ry
     estimated scf accuracy    <       0.00000460 Ry

     iteration # 30     ecut=   100.00 Ry     beta=0.30
     Davidson diagonalization with overlap
     ethr =  1.91E-08,  avg # of iterations =  1.0

     total cpu time spent up to now is      745.3 secs

     total energy              =    -138.95168764 Ry
     Harris-Foulkes estimate   =    -138.95168773 Ry
     estimated scf accuracy    <       0.00000601 Ry

     iteration # 31     ecut=   100.00 Ry     beta=0.30
     Davidson diagonalization with overlap
     ethr =  1.91E-08,  avg # of iterations =  1.0

     total cpu time spent up to now is      766.1 secs

     total energy              =    -138.95168539 Ry
     Harris-Foulkes estimate   =    -138.95168765 Ry
     estimated scf accuracy    <       0.00000571 Ry

     iteration # 32     ecut=   100.00 Ry     beta=0.30
     Davidson diagonalization with overlap
     ethr =  1.91E-08,  avg # of iterations =  3.7

     total cpu time spent up to now is      793.6 secs

     End of self-consistent calculation

     Number of k-points >= 100: set verbosity='high' to print the bands.

!    total energy              =    -138.95168598 Ry
     Harris-Foulkes estimate   =    -138.95168650 Ry
     estimated scf accuracy    <       0.00000076 Ry

     The total energy is the sum of the following terms:

     one-electron contribution =     -26.04064477 Ry
     hartree contribution      =      27.58809022 Ry
     xc contribution           =     -26.13870518 Ry
     ewald contribution        =    -114.36042625 Ry

     convergence has been achieved in  32 iterations

     Forces acting on atoms (Ry/au):

     atom    1 type  3   force =    -0.00029570    0.00017073   -0.00114771
     atom    2 type  2   force =    -0.14432346    0.08332519   -0.18309947
     atom    3 type  2   force =     0.14370716   -0.08296937    0.19658348
     atom    4 type  1   force =     0.01556951   -0.00898906   -0.02906916
     atom    5 type  1   force =    -0.01465750    0.00846251    0.01673285

     Total force =     0.359464     Total SCF correction =     0.000606


     entering subroutine stress ...

          total   stress  (Ry/bohr**3)                   (kbar)     P= 1016.27
   0.00960679   0.00037459   0.00055401       1413.21     55.10     81.50
   0.00037459   0.01003932  -0.00031986         55.10   1476.84    -47.05
   0.00055401  -0.00031986   0.00107922         81.50    -47.05    158.76


     BFGS Geometry Optimization

     number of scf cycles    =   1
     number of bfgs steps    =   0

     enthalpy new            =    -136.5847235221 Ry

     new trust radius        =       0.5000000000 bohr
     new conv_thr            =       0.0000010000 Ry

     new unit-cell volume =    191.49340 a.u.^3 (    28.37639 Ang^3 )

CELL_PARAMETERS (alat=  5.86000000)
   0.989407751   0.006724865   0.009946048
  -0.488879971   0.860214680  -0.009946048
   0.013248136  -0.007648815   1.113971124

ATOMIC_POSITIONS (crystal)
Ca      -0.000024158   0.000024158  -0.000105589
O        0.321542667   0.678457333   0.455154826
O        0.678406983   0.321593017   0.556085705
H        0.501271968   0.498728032   0.705325634
H        0.498802539   0.501197461   0.293539424



     Writing output data file CaOH2_ambient.save
     NEW-OLD atomic charge density approx. for the potential
     NEW k-points: (use verbosity='high' to print them)
     extrapolated charge   19.33163, renormalised to   24.00000

     total cpu time spent up to now is      884.5 secs

     per-process dynamical memory:    17.6 Mb

     Self-consistent Calculation

     iteration #  1     ecut=   100.00 Ry     beta=0.30
     Davidson diagonalization with overlap
     ethr =  1.00E-06,  avg # of iterations =  8.6

     total cpu time spent up to now is      962.4 secs

     total energy              =    -137.79026517 Ry
     Harris-Foulkes estimate   =    -142.27914524 Ry
     estimated scf accuracy    <       3.73276193 Ry

     iteration #  2     ecut=   100.00 Ry     beta=0.30
     Davidson diagonalization with overlap
     ethr =  1.00E-02,  avg # of iterations =  2.9

     total cpu time spent up to now is      994.6 secs

     total energy              =    -138.98110942 Ry
     Harris-Foulkes estimate   =    -139.01891341 Ry
     estimated scf accuracy    <       0.21013745 Ry

     iteration #  3     ecut=   100.00 Ry     beta=0.30
     Davidson diagonalization with overlap
     ethr =  8.76E-04,  avg # of iterations =  2.2

     total cpu time spent up to now is     1016.9 secs

     total energy              =    -138.95997199 Ry
     Harris-Foulkes estimate   =    -138.99802495 Ry
     estimated scf accuracy    <       0.09105954 Ry

     iteration #  4     ecut=   100.00 Ry     beta=0.30
     Davidson diagonalization with overlap
     ethr =  3.79E-04,  avg # of iterations =  2.6

     total cpu time spent up to now is     1040.1 secs

     total energy              =    -138.96545693 Ry
     Harris-Foulkes estimate   =    -138.96897382 Ry
     estimated scf accuracy    <       0.00780572 Ry

     iteration #  5     ecut=   100.00 Ry     beta=0.30
     Davidson diagonalization with overlap
     ethr =  3.25E-05,  avg # of iterations =  3.0

     total cpu time spent up to now is     1068.3 secs

     total energy              =    -138.96732844 Ry
     Harris-Foulkes estimate   =    -138.96767243 Ry
     estimated scf accuracy    <       0.00098055 Ry

     iteration #  6     ecut=   100.00 Ry     beta=0.30
     Davidson diagonalization with overlap
     ethr =  4.09E-06,  avg # of iterations =  3.3

     total cpu time spent up to now is     1097.9 secs

     total energy              =    -138.96749105 Ry
     Harris-Foulkes estimate   =    -138.96762269 Ry
     estimated scf accuracy    <       0.00051224 Ry

     iteration #  7     ecut=   100.00 Ry     beta=0.30
     Davidson diagonalization with overlap
     ethr =  2.13E-06,  avg # of iterations =  2.0

     total cpu time spent up to now is     1119.7 secs

     total energy              =    -138.96746767 Ry
     Harris-Foulkes estimate   =    -138.96752343 Ry
     estimated scf accuracy    <       0.00011311 Ry

     iteration #  8     ecut=   100.00 Ry     beta=0.30
     Davidson diagonalization with overlap
     ethr =  4.71E-07,  avg # of iterations =  3.6

     total cpu time spent up to now is     1149.9 secs

     total energy              =    -138.96863775 Ry
     Harris-Foulkes estimate   =    -138.96867891 Ry
     estimated scf accuracy    <       0.00019736 Ry

     iteration #  9     ecut=   100.00 Ry     beta=0.30
     Davidson diagonalization with overlap
     ethr =  4.71E-07,  avg # of iterations =  2.4

     total cpu time spent up to now is     1172.7 secs

     total energy              =    -138.96863523 Ry
     Harris-Foulkes estimate   =    -138.96864673 Ry
     estimated scf accuracy    <       0.00004580 Ry

     iteration # 10     ecut=   100.00 Ry     beta=0.30
     Davidson diagonalization with overlap
     ethr =  1.91E-07,  avg # of iterations =  2.8

     total cpu time spent up to now is     1197.3 secs

     total energy              =    -138.96864015 Ry
     Harris-Foulkes estimate   =    -138.96864033 Ry
     estimated scf accuracy    <       0.00000247 Ry

     iteration # 11     ecut=   100.00 Ry     beta=0.30
     Davidson diagonalization with overlap
     ethr =  1.03E-08,  avg # of iterations =  2.2

     total cpu time spent up to now is     1220.1 secs

     total energy              =    -138.96864011 Ry
     Harris-Foulkes estimate   =    -138.96864033 Ry
     estimated scf accuracy    <       0.00000160 Ry

     iteration # 12     ecut=   100.00 Ry     beta=0.30
     Davidson diagonalization with overlap
     ethr =  6.67E-09,  avg # of iterations =  1.7

     total cpu time spent up to now is     1241.5 secs

     End of self-consistent calculation

     Number of k-points >= 100: set verbosity='high' to print the bands.

!    total energy              =    -138.96863973 Ry
     Harris-Foulkes estimate   =    -138.96864018 Ry
     estimated scf accuracy    <       0.00000056 Ry

     The total energy is the sum of the following terms:

     one-electron contribution =     -13.12842573 Ry
     hartree contribution      =      23.93925129 Ry
     xc contribution           =     -26.68124303 Ry
     ewald contribution        =    -123.09822226 Ry

     convergence has been achieved in  12 iterations

     Forces acting on atoms (Ry/au):

     atom    1 type  3   force =    -0.00062550    0.00036113    0.00430795
     atom    2 type  2   force =    -0.02168897    0.01252213   -0.30867144
     atom    3 type  2   force =     0.02619811   -0.01512548    0.30184011
     atom    4 type  1   force =     0.02009559   -0.01160219   -0.04468340
     atom    5 type  1   force =    -0.02397923    0.01384441    0.04720678

     Total force =     0.439860     Total SCF correction =     0.000979


     entering subroutine stress ...

          total   stress  (Ry/bohr**3)                   (kbar)     P= 1607.56
   0.01373546   0.00218676   0.00045185       2020.55    321.68     66.47
   0.00218676   0.01626051  -0.00026088        321.68   2392.00    -38.38
   0.00045185  -0.00026088   0.00278798         66.47    -38.38    410.13


     number of scf cycles    =   2
     number of bfgs steps    =   1

     enthalpy old            =    -136.5847235221 Ry
     enthalpy new            =    -137.0160209357 Ry

     CASE: enthalpy_new < enthalpy_old

     new trust radius        =       0.8000000000 bohr
     new conv_thr            =       0.0000010000 Ry

     new unit-cell volume =    144.20069 a.u.^3 (    21.36834 Ang^3 )

CELL_PARAMETERS (alat=  5.86000000)
   1.005198892   0.030354312   0.024652987
  -0.476311840   0.885704932  -0.024652987
   0.032482826  -0.018753968   0.793103330

ATOMIC_POSITIONS (crystal)
Ca      -0.000073806   0.000073806  -0.000047889
O        0.308018868   0.691981132   0.425100798
O        0.692060791   0.307939209   0.587188029
H        0.503431734   0.496568266   0.700739514
H        0.496562413   0.503437587   0.297019548



     Writing output data file CaOH2_ambient.save
     NEW-OLD atomic charge density approx. for the potential
     NEW k-points: (use verbosity='high' to print them)

     negative rho (up, down):  0.435E-04 0.000E+00
     extrapolated charge   16.78479, renormalised to   24.00000

     total cpu time spent up to now is     1332.1 secs

     per-process dynamical memory:    17.6 Mb

     Self-consistent Calculation

     iteration #  1     ecut=   100.00 Ry     beta=0.30
     Davidson diagonalization with overlap
     ethr =  1.00E-06,  avg # of iterations =  8.2

     total cpu time spent up to now is     1412.1 secs

     total energy              =    -137.32308680 Ry
     Harris-Foulkes estimate   =    -139.17411707 Ry
     estimated scf accuracy    <       4.01017058 Ry

     iteration #  2     ecut=   100.00 Ry     beta=0.30
     Davidson diagonalization with overlap
     ethr =  1.00E-02,  avg # of iterations =  3.0

     total cpu time spent up to now is     1444.7 secs

     total energy              =    -138.91151884 Ry
     Harris-Foulkes estimate   =    -139.02021684 Ry
     estimated scf accuracy    <       0.52499374 Ry

     iteration #  3     ecut=   100.00 Ry     beta=0.30
     Davidson diagonalization with overlap
     ethr =  2.19E-03,  avg # of iterations =  1.0

     total cpu time spent up to now is     1465.7 secs

     total energy              =    -138.73224373 Ry
     Harris-Foulkes estimate   =    -138.92014940 Ry
     estimated scf accuracy    <       0.30445629 Ry

     iteration #  4     ecut=   100.00 Ry     beta=0.30
     Davidson diagonalization with overlap
     ethr =  1.27E-03,  avg # of iterations =  2.0

     total cpu time spent up to now is     1496.1 secs

     total energy              =    -138.78647636 Ry
     Harris-Foulkes estimate   =    -138.78858590 Ry
     estimated scf accuracy    <       0.01062477 Ry

     iteration #  5     ecut=   100.00 Ry     beta=0.30
     Davidson diagonalization with overlap
     ethr =  4.43E-05,  avg # of iterations =  2.0

     total cpu time spent up to now is     1518.9 secs

     total energy              =    -138.78499476 Ry
     Harris-Foulkes estimate   =    -138.78718673 Ry
     estimated scf accuracy    <       0.00480053 Ry

     iteration #  6     ecut=   100.00 Ry     beta=0.30
     Davidson diagonalization with overlap
     ethr =  2.00E-05,  avg # of iterations =  2.3

     total cpu time spent up to now is     1547.6 secs

     total energy              =    -138.78621386 Ry
     Harris-Foulkes estimate   =    -138.78628147 Ry
     estimated scf accuracy    <       0.00102541 Ry

     iteration #  7     ecut=   100.00 Ry     beta=0.30
     Davidson diagonalization with overlap
     ethr =  4.27E-06,  avg # of iterations =  1.0

     total cpu time spent up to now is     1568.4 secs

     total energy              =    -138.78576492 Ry
     Harris-Foulkes estimate   =    -138.78622317 Ry
     estimated scf accuracy    <       0.00086423 Ry

     iteration #  8     ecut=   100.00 Ry     beta=0.30
     Davidson diagonalization with overlap
     ethr =  3.60E-06,  avg # of iterations =  2.3

     total cpu time spent up to now is     1596.4 secs

     total energy              =    -138.78596488 Ry
     Harris-Foulkes estimate   =    -138.78596557 Ry
     estimated scf accuracy    <       0.00001759 Ry

     iteration #  9     ecut=   100.00 Ry     beta=0.30
     Davidson diagonalization with overlap
     ethr =  7.33E-08,  avg # of iterations =  2.1

     total cpu time spent up to now is     1621.2 secs

     total energy              =    -138.78596038 Ry
     Harris-Foulkes estimate   =    -138.78596673 Ry
     estimated scf accuracy    <       0.00001456 Ry

     iteration # 10     ecut=   100.00 Ry     beta=0.30
     Davidson diagonalization with overlap
     ethr =  6.06E-08,  avg # of iterations =  2.0

     total cpu time spent up to now is     1646.9 secs

     End of self-consistent calculation

     Number of k-points >= 100: set verbosity='high' to print the bands.

!    total energy              =    -138.78596182 Ry
     Harris-Foulkes estimate   =    -138.78596209 Ry
     estimated scf accuracy    <       0.00000037 Ry

     The total energy is the sum of the following terms:

     one-electron contribution =       8.61305941 Ry
     hartree contribution      =      17.60262229 Ry
     xc contribution           =     -27.41392772 Ry
     ewald contribution        =    -137.58771580 Ry

     convergence has been achieved in  10 iterations

     Forces acting on atoms (Ry/au):

     atom    1 type  3   force =     0.00084972   -0.00049059    0.00901095
     atom    2 type  2   force =     0.23036683   -0.13300235   -0.15034240
     atom    3 type  2   force =    -0.22557818    0.13023762    0.13669126
     atom    4 type  1   force =     0.01563516   -0.00902696    0.06874855
     atom    5 type  1   force =    -0.02127354    0.01228228   -0.06410835

     Total force =     0.435593     Total SCF correction =     0.000687


     entering subroutine stress ...

          total   stress  (Ry/bohr**3)                   (kbar)     P= 3171.60
   0.02080853   0.00522893   0.00041934       3061.04    769.20     61.69
   0.00522893   0.02684638  -0.00024211        769.20   3949.24    -35.62
   0.00041934  -0.00024211   0.01702539         61.69    -35.62   2504.52


     number of scf cycles    =   3
     number of bfgs steps    =   2

     enthalpy old            =    -137.0160209357 Ry
     enthalpy new            =    -137.3155769952 Ry

     CASE: enthalpy_new < enthalpy_old

     new trust radius        =       0.2163467727 bohr
     new conv_thr            =       0.0000010000 Ry

     new unit-cell volume =    167.80584 a.u.^3 (    24.86626 Ang^3 )

CELL_PARAMETERS (alat=  5.86000000)
   1.030137505   0.047993953   0.030234717
  -0.473504770   0.916122225  -0.030234717
   0.044366767  -0.025615165   0.864626845

ATOMIC_POSITIONS (crystal)
Ca       0.000036779  -0.000036779  -0.000174797
O        0.310574881   0.689425119   0.424491834
O        0.689292497   0.310707503   0.589664410
H        0.504568312   0.495431688   0.704995227
H        0.495527532   0.504472468   0.291023326



     Writing output data file CaOH2_ambient.save
     NEW-OLD atomic charge density approx. for the potential
     NEW k-points: (use verbosity='high' to print them)
     extrapolated charge   27.09472, renormalised to   24.00000

     total cpu time spent up to now is     1737.6 secs

     per-process dynamical memory:    17.6 Mb

     Self-consistent Calculation

     iteration #  1     ecut=   100.00 Ry     beta=0.30
     Davidson diagonalization with overlap
     ethr =  1.00E-06,  avg # of iterations =  7.6

     total cpu time spent up to now is     1801.3 secs

     total energy              =    -138.74390559 Ry
     Harris-Foulkes estimate   =    -138.59601344 Ry
     estimated scf accuracy    <       0.46182766 Ry

     iteration #  2     ecut=   100.00 Ry     beta=0.30
     Davidson diagonalization with overlap
     ethr =  1.92E-03,  avg # of iterations =  3.1

     total cpu time spent up to now is     1838.0 secs

     total energy              =    -139.21938886 Ry
     Harris-Foulkes estimate   =    -139.23847066 Ry
     estimated scf accuracy    <       0.12407340 Ry

     iteration #  3     ecut=   100.00 Ry     beta=0.30
     Davidson diagonalization with overlap
     ethr =  5.17E-04,  avg # of iterations =  1.0

     total cpu time spent up to now is     1858.9 secs

     total energy              =    -139.18751129 Ry
     Harris-Foulkes estimate   =    -139.22103241 Ry
     estimated scf accuracy    <       0.07382287 Ry

     iteration #  4     ecut=   100.00 Ry     beta=0.30
     Davidson diagonalization with overlap
     ethr =  3.08E-04,  avg # of iterations =  2.0

     total cpu time spent up to now is     1884.9 secs

     total energy              =    -139.19969938 Ry
     Harris-Foulkes estimate   =    -139.19935013 Ry
     estimated scf accuracy    <       0.00161742 Ry

     iteration #  5     ecut=   100.00 Ry     beta=0.30
     Davidson diagonalization with overlap
     ethr =  6.74E-06,  avg # of iterations =  2.0

     total cpu time spent up to now is     1910.8 secs

     total energy              =    -139.19841584 Ry
     Harris-Foulkes estimate   =    -139.19990176 Ry
     estimated scf accuracy    <       0.00294286 Ry

     iteration #  6     ecut=   100.00 Ry     beta=0.30
     Davidson diagonalization with overlap
     ethr =  6.74E-06,  avg # of iterations =  2.7

     total cpu time spent up to now is     1940.0 secs

     total energy              =    -139.19894912 Ry
     Harris-Foulkes estimate   =    -139.19895261 Ry
     estimated scf accuracy    <       0.00001460 Ry

     iteration #  7     ecut=   100.00 Ry     beta=0.30
     Davidson diagonalization with overlap
     ethr =  6.08E-08,  avg # of iterations =  2.3

     total cpu time spent up to now is     1972.5 secs

     total energy              =    -139.19895020 Ry
     Harris-Foulkes estimate   =    -139.19895478 Ry
     estimated scf accuracy    <       0.00001021 Ry

     iteration #  8     ecut=   100.00 Ry     beta=0.30
     Davidson diagonalization with overlap
     ethr =  4.25E-08,  avg # of iterations =  2.1

     total cpu time spent up to now is     2000.3 secs

     total energy              =    -139.19895203 Ry
     Harris-Foulkes estimate   =    -139.19895251 Ry
     estimated scf accuracy    <       0.00000107 Ry

     iteration #  9     ecut=   100.00 Ry     beta=0.30
     Davidson diagonalization with overlap
     ethr =  4.44E-09,  avg # of iterations =  2.0

     total cpu time spent up to now is     2029.7 secs

     End of self-consistent calculation

     Number of k-points >= 100: set verbosity='high' to print the bands.

!    total energy              =    -139.19895220 Ry
     Harris-Foulkes estimate   =    -139.19895221 Ry
     estimated scf accuracy    <       0.00000006 Ry

     The total energy is the sum of the following terms:

     one-electron contribution =      -2.07563801 Ry
     hartree contribution      =      20.22687480 Ry
     xc contribution           =     -27.01127781 Ry
     ewald contribution        =    -130.33891117 Ry

     convergence has been achieved in   9 iterations

     Forces acting on atoms (Ry/au):

     atom    1 type  3   force =    -0.00024231    0.00013990    0.00810404
     atom    2 type  2   force =     0.14105273   -0.08143683   -0.15970433
     atom    3 type  2   force =    -0.13008817    0.07510644    0.14429280
     atom    4 type  1   force =     0.01581866   -0.00913291    0.03349793
     atom    5 type  1   force =    -0.02654092    0.01532341   -0.02619044

     Total force =     0.313950     Total SCF correction =     0.000411


     entering subroutine stress ...

          total   stress  (Ry/bohr**3)                   (kbar)     P= 1933.46
   0.01290578   0.00354382   0.00063702       1898.50    521.31     93.71
   0.00354382   0.01699783  -0.00036778        521.31   2500.47    -54.10
   0.00063702  -0.00036778   0.00952663         93.71    -54.10   1401.42


     number of scf cycles    =   4
     number of bfgs steps    =   3

     enthalpy old            =    -137.3155769952 Ry
     enthalpy new            =    -137.4878705137 Ry

     CASE: enthalpy_new < enthalpy_old

     new trust radius        =       0.2809879675 bohr
     new conv_thr            =       0.0000010000 Ry

     new unit-cell volume =    168.88016 a.u.^3 (    25.02546 Ang^3 )

CELL_PARAMETERS (alat=  5.86000000)
   1.039111194   0.117859664   0.057497177
  -0.417486134   0.958826524  -0.057497177
   0.095886015  -0.055359817   0.810260945

ATOMIC_POSITIONS (crystal)
Ca       0.000178347  -0.000178347   0.000084858
O        0.321034465   0.678965535   0.411615994
O        0.679792735   0.320207265   0.605205802
H        0.508352059   0.491647941   0.714025977
H        0.490642393   0.509357607   0.279067368



     Writing output data file CaOH2_ambient.save
     NEW-OLD atomic charge density approx. for the potential
     NEW k-points: (use verbosity='high' to print them)
     extrapolated charge   24.13995, renormalised to   24.00000

     total cpu time spent up to now is     2120.2 secs

     per-process dynamical memory:    17.6 Mb

     Self-consistent Calculation

     iteration #  1     ecut=   100.00 Ry     beta=0.30
     Davidson diagonalization with overlap
     ethr =  1.00E-06,  avg # of iterations =  7.0

     total cpu time spent up to now is     2193.1 secs

     total energy              =    -139.30430310 Ry
     Harris-Foulkes estimate   =    -139.27013965 Ry
     estimated scf accuracy    <       0.02050697 Ry

     iteration #  2     ecut=   100.00 Ry     beta=0.30
     Davidson diagonalization with overlap
     ethr =  8.54E-05,  avg # of iterations =  1.0

     total cpu time spent up to now is     2215.0 secs

     total energy              =    -139.29734671 Ry
     Harris-Foulkes estimate   =    -139.30450451 Ry
     estimated scf accuracy    <       0.01421971 Ry

     iteration #  3     ecut=   100.00 Ry     beta=0.30
     Davidson diagonalization with overlap
     ethr =  5.92E-05,  avg # of iterations =  2.0

     total cpu time spent up to now is     2243.3 secs

     total energy              =    -139.30048958 Ry
     Harris-Foulkes estimate   =    -139.30129148 Ry
     estimated scf accuracy    <       0.00281479 Ry

     iteration #  4     ecut=   100.00 Ry     beta=0.30
     Davidson diagonalization with overlap
     ethr =  1.17E-05,  avg # of iterations =  1.3

     total cpu time spent up to now is     2264.4 secs

     total energy              =    -139.30012997 Ry
     Harris-Foulkes estimate   =    -139.30062270 Ry
     estimated scf accuracy    <       0.00090411 Ry

     iteration #  5     ecut=   100.00 Ry     beta=0.30
     Davidson diagonalization with overlap
     ethr =  3.77E-06,  avg # of iterations =  2.0

     total cpu time spent up to now is     2292.2 secs

     total energy              =    -139.30039537 Ry
     Harris-Foulkes estimate   =    -139.30040224 Ry
     estimated scf accuracy    <       0.00005407 Ry

     iteration #  6     ecut=   100.00 Ry     beta=0.30
     Davidson diagonalization with overlap
     ethr =  2.25E-07,  avg # of iterations =  1.4

     total cpu time spent up to now is     2313.5 secs

     total energy              =    -139.30038188 Ry
     Harris-Foulkes estimate   =    -139.30039701 Ry
     estimated scf accuracy    <       0.00003565 Ry

     iteration #  7     ecut=   100.00 Ry     beta=0.30
     Davidson diagonalization with overlap
     ethr =  1.49E-07,  avg # of iterations =  2.0

     total cpu time spent up to now is     2339.2 secs

     total energy              =    -139.30038601 Ry
     Harris-Foulkes estimate   =    -139.30038664 Ry
     estimated scf accuracy    <       0.00000127 Ry

     iteration #  8     ecut=   100.00 Ry     beta=0.30
     Davidson diagonalization with overlap
     ethr =  5.29E-09,  avg # of iterations =  2.2

     total cpu time spent up to now is     2368.6 secs

     End of self-consistent calculation

     Number of k-points >= 100: set verbosity='high' to print the bands.

!    total energy              =    -139.30038627 Ry
     Harris-Foulkes estimate   =    -139.30038629 Ry
     estimated scf accuracy    <       0.00000004 Ry

     The total energy is the sum of the following terms:

     one-electron contribution =      -4.22626035 Ry
     hartree contribution      =      20.91524033 Ry
     xc contribution           =     -27.18413323 Ry
     ewald contribution        =    -128.80523302 Ry

     convergence has been achieved in   8 iterations

     Forces acting on atoms (Ry/au):

     atom    1 type  3   force =    -0.00332098    0.00191737    0.01107120
     atom    2 type  2   force =    -0.14754776    0.08518674   -0.10707119
     atom    3 type  2   force =     0.15147231   -0.08745258    0.10773400
     atom    4 type  1   force =    -0.11113000    0.06416094    0.10600329
     atom    5 type  1   force =     0.11052643   -0.06381246   -0.11773729

     Total force =     0.375074     Total SCF correction =     0.000240


     entering subroutine stress ...

          total   stress  (Ry/bohr**3)                   (kbar)     P= 1908.91
   0.01444963  -0.00218130  -0.00037859       2125.61   -320.88    -55.69
  -0.00218130   0.01193089   0.00021858       -320.88   1755.09     32.15
  -0.00037859   0.00021858   0.01254895        -55.69     32.15   1846.01


     number of scf cycles    =   5
     number of bfgs steps    =   4

     enthalpy old            =    -137.4878705137 Ry
     enthalpy new            =    -137.5783499697 Ry

     CASE: enthalpy_new < enthalpy_old

     new trust radius        =       0.1396163436 bohr
     new conv_thr            =       0.0000010000 Ry

     new unit-cell volume =    181.36360 a.u.^3 (    26.87531 Ang^3 )

CELL_PARAMETERS (alat=  5.86000000)
   1.084047952   0.112632657   0.061002174
  -0.444481234   0.995129394  -0.061002174
   0.098018636  -0.056591086   0.806237995

ATOMIC_POSITIONS (crystal)
Ca      -0.000014942   0.000014942   0.000842128
O        0.311156128   0.688843872   0.397660314
O        0.690569363   0.309430637   0.620081518
H        0.501199087   0.498800913   0.722139448
H        0.497090365   0.502909635   0.269276592



     Writing output data file CaOH2_ambient.save
     NEW-OLD atomic charge density approx. for the potential
     NEW k-points: (use verbosity='high' to print them)
     extrapolated charge   25.51428, renormalised to   24.00000

     total cpu time spent up to now is     2459.1 secs

     per-process dynamical memory:    17.6 Mb

     Self-consistent Calculation

     iteration #  1     ecut=   100.00 Ry     beta=0.30
     Davidson diagonalization with overlap
     ethr =  1.00E-06,  avg # of iterations =  7.2

     total cpu time spent up to now is     2527.1 secs

     total energy              =    -139.34586548 Ry
     Harris-Foulkes estimate   =    -139.00628410 Ry
     estimated scf accuracy    <       0.20390929 Ry

     iteration #  2     ecut=   100.00 Ry     beta=0.30
     Davidson diagonalization with overlap
     ethr =  8.50E-04,  avg # of iterations =  3.0

     total cpu time spent up to now is     2561.7 secs

     total energy              =    -139.46707822 Ry
     Harris-Foulkes estimate   =    -139.47405129 Ry
     estimated scf accuracy    <       0.04006858 Ry

     iteration #  3     ecut=   100.00 Ry     beta=0.30
     Davidson diagonalization with overlap
     ethr =  1.67E-04,  avg # of iterations =  1.0

     total cpu time spent up to now is     2582.5 secs

     total energy              =    -139.45178330 Ry
     Harris-Foulkes estimate   =    -139.46770539 Ry
     estimated scf accuracy    <       0.02427148 Ry

     iteration #  4     ecut=   100.00 Ry     beta=0.30
     Davidson diagonalization with overlap
     ethr =  1.01E-04,  avg # of iterations =  2.3

     total cpu time spent up to now is     2610.0 secs

     total energy              =    -139.45866441 Ry
     Harris-Foulkes estimate   =    -139.45926744 Ry
     estimated scf accuracy    <       0.00342692 Ry

     iteration #  5     ecut=   100.00 Ry     beta=0.30
     Davidson diagonalization with overlap
     ethr =  1.43E-05,  avg # of iterations =  1.1

     total cpu time spent up to now is     2630.9 secs

     total energy              =    -139.45772551 Ry
     Harris-Foulkes estimate   =    -139.45874260 Ry
     estimated scf accuracy    <       0.00198154 Ry

     iteration #  6     ecut=   100.00 Ry     beta=0.30
     Davidson diagonalization with overlap
     ethr =  8.26E-06,  avg # of iterations =  2.0

     total cpu time spent up to now is     2658.4 secs

     total energy              =    -139.45818837 Ry
     Harris-Foulkes estimate   =    -139.45819585 Ry
     estimated scf accuracy    <       0.00005055 Ry

     iteration #  7     ecut=   100.00 Ry     beta=0.30
     Davidson diagonalization with overlap
     ethr =  2.11E-07,  avg # of iterations =  2.0

     total cpu time spent up to now is     2681.9 secs

     total energy              =    -139.45817956 Ry
     Harris-Foulkes estimate   =    -139.45819204 Ry
     estimated scf accuracy    <       0.00003014 Ry

     iteration #  8     ecut=   100.00 Ry     beta=0.30
     Davidson diagonalization with overlap
     ethr =  1.26E-07,  avg # of iterations =  2.0

     total cpu time spent up to now is     2706.4 secs

     total energy              =    -139.45818168 Ry
     Harris-Foulkes estimate   =    -139.45818228 Ry
     estimated scf accuracy    <       0.00000124 Ry

     iteration #  9     ecut=   100.00 Ry     beta=0.30
     Davidson diagonalization with overlap
     ethr =  5.19E-09,  avg # of iterations =  2.7

     total cpu time spent up to now is     2735.5 secs

     End of self-consistent calculation

     Number of k-points >= 100: set verbosity='high' to print the bands.

!    total energy              =    -139.45818182 Ry
     Harris-Foulkes estimate   =    -139.45818212 Ry
     estimated scf accuracy    <       0.00000043 Ry

     The total energy is the sum of the following terms:

     one-electron contribution =      -7.17325717 Ry
     hartree contribution      =      21.31631130 Ry
     xc contribution           =     -26.81595798 Ry
     ewald contribution        =    -126.78527797 Ry

     convergence has been achieved in   9 iterations

     Forces acting on atoms (Ry/au):

     atom    1 type  3   force =     0.00082101   -0.00047401    0.00864123
     atom    2 type  2   force =     0.09814255   -0.05666263   -0.11235603
     atom    3 type  2   force =    -0.10734731    0.06197700    0.11265901
     atom    4 type  1   force =     0.02561132   -0.01478670    0.02931768
     atom    5 type  1   force =    -0.01722757    0.00994634   -0.03826190

     Total force =     0.239150     Total SCF correction =     0.000124


     entering subroutine stress ...

          total   stress  (Ry/bohr**3)                   (kbar)     P= 1271.22
   0.00729297   0.00043765  -0.00007248       1072.83     64.38    -10.66
   0.00043765   0.00779833   0.00004185         64.38   1147.17      6.16
  -0.00007248   0.00004185   0.01083348        -10.66      6.16   1593.66


     number of scf cycles    =   6
     number of bfgs steps    =   5

     enthalpy old            =    -137.5783499697 Ry
     enthalpy new            =    -137.6088544526 Ry

     CASE: enthalpy_new < enthalpy_old

     new trust radius        =       0.1200985725 bohr
     new conv_thr            =       0.0000010000 Ry

     new unit-cell volume =    181.77575 a.u.^3 (    26.93639 Ang^3 )

CELL_PARAMETERS (alat=  5.86000000)
   1.062163731   0.110651276   0.054862711
  -0.435255050   0.975186412  -0.054862711
   0.092856856  -0.053610931   0.840151767

ATOMIC_POSITIONS (crystal)
Ca       0.000016682  -0.000016682   0.001537453
O        0.315608731   0.684391269   0.390308925
O        0.685486138   0.314513862   0.626905376
H        0.500948706   0.499051294   0.724484849
H        0.497939743   0.502060257   0.266763396



     Writing output data file CaOH2_ambient.save
     NEW-OLD atomic charge density approx. for the potential
     NEW k-points: (use verbosity='high' to print them)
     extrapolated charge   24.04988, renormalised to   24.00000

     total cpu time spent up to now is     2826.0 secs

     per-process dynamical memory:    17.6 Mb

     Self-consistent Calculation

     iteration #  1     ecut=   100.00 Ry     beta=0.30
     Davidson diagonalization with overlap
     ethr =  1.00E-06,  avg # of iterations =  6.1

     total cpu time spent up to now is     2888.0 secs

     total energy              =    -139.49181980 Ry
     Harris-Foulkes estimate   =    -139.47624052 Ry
     estimated scf accuracy    <       0.00523277 Ry

     iteration #  2     ecut=   100.00 Ry     beta=0.30
     Davidson diagonalization with overlap
     ethr =  2.18E-05,  avg # of iterations =  1.0

     total cpu time spent up to now is     2908.9 secs

     total energy              =    -139.49031357 Ry
     Harris-Foulkes estimate   =    -139.49193285 Ry
     estimated scf accuracy    <       0.00326221 Ry

     iteration #  3     ecut=   100.00 Ry     beta=0.30
     Davidson diagonalization with overlap
     ethr =  1.36E-05,  avg # of iterations =  2.0

     total cpu time spent up to now is     2934.6 secs

     total energy              =    -139.49059615 Ry
     Harris-Foulkes estimate   =    -139.49067880 Ry
     estimated scf accuracy    <       0.00017952 Ry

     iteration #  4     ecut=   100.00 Ry     beta=0.30
     Davidson diagonalization with overlap
     ethr =  7.48E-07,  avg # of iterations =  2.0

     total cpu time spent up to now is     2961.5 secs

     total energy              =    -139.49060418 Ry
     Harris-Foulkes estimate   =    -139.49062555 Ry
     estimated scf accuracy    <       0.00004863 Ry

     iteration #  5     ecut=   100.00 Ry     beta=0.30
     Davidson diagonalization with overlap
     ethr =  2.03E-07,  avg # of iterations =  2.0

     total cpu time spent up to now is     2989.9 secs

     total energy              =    -139.49061295 Ry
     Harris-Foulkes estimate   =    -139.49061355 Ry
     estimated scf accuracy    <       0.00000832 Ry

     iteration #  6     ecut=   100.00 Ry     beta=0.30
     Davidson diagonalization with overlap
     ethr =  3.47E-08,  avg # of iterations =  1.0

     total cpu time spent up to now is     3010.8 secs

     total energy              =    -139.49060951 Ry
     Harris-Foulkes estimate   =    -139.49061302 Ry
     estimated scf accuracy    <       0.00000707 Ry

     iteration #  7     ecut=   100.00 Ry     beta=0.30
     Davidson diagonalization with overlap
     ethr =  2.95E-08,  avg # of iterations =  2.0

     total cpu time spent up to now is     3039.2 secs

     End of self-consistent calculation

     Number of k-points >= 100: set verbosity='high' to print the bands.

!    total energy              =    -139.49061071 Ry
     Harris-Foulkes estimate   =    -139.49061075 Ry
     estimated scf accuracy    <       0.00000013 Ry

     The total energy is the sum of the following terms:

     one-electron contribution =      -7.53470975 Ry
     hartree contribution      =      21.46436008 Ry
     xc contribution           =     -26.85789472 Ry
     ewald contribution        =    -126.56236631 Ry

     convergence has been achieved in   7 iterations

     Forces acting on atoms (Ry/au):

     atom    1 type  3   force =     0.00105111   -0.00060686    0.00720641
     atom    2 type  2   force =     0.02658573   -0.01534928   -0.10493444
     atom    3 type  2   force =    -0.02913879    0.01682329    0.10531372
     atom    4 type  1   force =    -0.00821928    0.00474540    0.02550338
     atom    5 type  1   force =     0.00972122   -0.00561255   -0.03308907

     Total force =     0.161838     Total SCF correction =     0.000388


     entering subroutine stress ...

          total   stress  (Ry/bohr**3)                   (kbar)     P= 1315.95
   0.00854249   0.00026468   0.00041296       1256.64     38.94     60.75
   0.00026468   0.00884812  -0.00023842         38.94   1301.60    -35.07
   0.00041296  -0.00023842   0.00944635         60.75    -35.07   1389.61


     number of scf cycles    =   7
     number of bfgs steps    =   6

     enthalpy old            =    -137.6088544526 Ry
     enthalpy new            =    -137.6370807667 Ry

     CASE: enthalpy_new < enthalpy_old

     new trust radius        =       0.1188991225 bohr
     new conv_thr            =       0.0000010000 Ry

     new unit-cell volume =    178.53588 a.u.^3 (    26.45629 Ang^3 )

CELL_PARAMETERS (alat=  5.86000000)
   1.036284754   0.118959862   0.063930807
  -0.415120115   0.956928853  -0.063930807
   0.117626501  -0.067911692   0.862614222

ATOMIC_POSITIONS (crystal)
Ca       0.000238852  -0.000238852   0.003145285
O        0.319570859   0.680429141   0.368827775
O        0.680773643   0.319226357   0.648393208
H        0.496924237   0.503075763   0.731977367
H        0.502492409   0.497507591   0.257656365



     Writing output data file CaOH2_ambient.save
     NEW-OLD atomic charge density approx. for the potential
     NEW k-points: (use verbosity='high' to print them)
     extrapolated charge   23.60077, renormalised to   24.00000

     total cpu time spent up to now is     3129.9 secs

     per-process dynamical memory:    17.6 Mb

     Self-consistent Calculation

     iteration #  1     ecut=   100.00 Ry     beta=0.30
     Davidson diagonalization with overlap
     ethr =  1.00E-06,  avg # of iterations =  6.9

     total cpu time spent up to now is     3194.8 secs

     total energy              =    -139.48053174 Ry
     Harris-Foulkes estimate   =    -139.62260719 Ry
     estimated scf accuracy    <       0.02093349 Ry

     iteration #  2     ecut=   100.00 Ry     beta=0.30
     Davidson diagonalization with overlap
     ethr =  8.72E-05,  avg # of iterations =  2.1

     total cpu time spent up to now is     3225.7 secs

     total energy              =    -139.48872670 Ry
     Harris-Foulkes estimate   =    -139.48928053 Ry
     estimated scf accuracy    <       0.00379433 Ry

     iteration #  3     ecut=   100.00 Ry     beta=0.30
     Davidson diagonalization with overlap
     ethr =  1.58E-05,  avg # of iterations =  1.0

     total cpu time spent up to now is     3246.5 secs

     total energy              =    -139.48757069 Ry
     Harris-Foulkes estimate   =    -139.48878878 Ry
     estimated scf accuracy    <       0.00232571 Ry

     iteration #  4     ecut=   100.00 Ry     beta=0.30
     Davidson diagonalization with overlap
     ethr =  9.69E-06,  avg # of iterations =  2.0

     total cpu time spent up to now is     3274.5 secs

     total energy              =    -139.48800200 Ry
     Harris-Foulkes estimate   =    -139.48801516 Ry
     estimated scf accuracy    <       0.00008566 Ry

     iteration #  5     ecut=   100.00 Ry     beta=0.30
     Davidson diagonalization with overlap
     ethr =  3.57E-07,  avg # of iterations =  1.9

     total cpu time spent up to now is     3296.7 secs

     total energy              =    -139.48798634 Ry
     Harris-Foulkes estimate   =    -139.48800678 Ry
     estimated scf accuracy    <       0.00004668 Ry

     iteration #  6     ecut=   100.00 Ry     beta=0.30
     Davidson diagonalization with overlap
     ethr =  1.95E-07,  avg # of iterations =  2.0

     total cpu time spent up to now is     3324.4 secs

     total energy              =    -139.48799831 Ry
     Harris-Foulkes estimate   =    -139.48799830 Ry
     estimated scf accuracy    <       0.00000428 Ry

     iteration #  7     ecut=   100.00 Ry     beta=0.30
     Davidson diagonalization with overlap
     ethr =  1.78E-08,  avg # of iterations =  1.0

     total cpu time spent up to now is     3345.3 secs

     total energy              =    -139.48799654 Ry
     Harris-Foulkes estimate   =    -139.48799838 Ry
     estimated scf accuracy    <       0.00000394 Ry

     iteration #  8     ecut=   100.00 Ry     beta=0.30
     Davidson diagonalization with overlap
     ethr =  1.64E-08,  avg # of iterations =  2.0

     total cpu time spent up to now is     3372.0 secs

     End of self-consistent calculation

     Number of k-points >= 100: set verbosity='high' to print the bands.

!    total energy              =    -139.48799713 Ry
     Harris-Foulkes estimate   =    -139.48799716 Ry
     estimated scf accuracy    <       0.00000005 Ry

     The total energy is the sum of the following terms:

     one-electron contribution =      -7.02542983 Ry
     hartree contribution      =      21.49019975 Ry
     xc contribution           =     -26.96971688 Ry
     ewald contribution        =    -126.98305016 Ry

     convergence has been achieved in   8 iterations

     Forces acting on atoms (Ry/au):

     atom    1 type  3   force =    -0.00165316    0.00095445    0.00559570
     atom    2 type  2   force =    -0.04228848    0.02441527   -0.08617304
     atom    3 type  2   force =     0.04472285   -0.02582075    0.09231728
     atom    4 type  1   force =    -0.05514853    0.03184002    0.01608866
     atom    5 type  1   force =     0.05436732   -0.03138898   -0.02782860

     Total force =     0.173390     Total SCF correction =     0.000540


     entering subroutine stress ...

          total   stress  (Ry/bohr**3)                   (kbar)     P= 1479.69
   0.01025903  -0.00021734  -0.00010436       1509.16    -31.97    -15.35
  -0.00021734   0.01000807   0.00006025        -31.97   1472.24      8.86
  -0.00010436   0.00006025   0.00990905        -15.35      8.86   1457.67


     number of scf cycles    =   8
     number of bfgs steps    =   7

     enthalpy old            =    -137.6370807667 Ry
     enthalpy new            =    -137.6675035011 Ry

     CASE: enthalpy_new < enthalpy_old

     new trust radius        =       0.2655387964 bohr
     new conv_thr            =       0.0000009232 Ry

     new unit-cell volume =    175.20147 a.u.^3 (    25.96218 Ang^3 )

CELL_PARAMETERS (alat=  5.86000000)
   0.991109634   0.138685837   0.071231966
  -0.375449359   0.927669039  -0.071231966
   0.144752475  -0.083572881   0.911292701

ATOMIC_POSITIONS (crystal)
Ca       0.000333208  -0.000333208   0.006752385
O        0.323334883   0.676665117   0.316769387
O        0.676072897   0.323927103   0.701615354
H        0.482249829   0.517750171   0.747205067
H        0.518009182   0.481990818   0.237657808



     Writing output data file CaOH2_ambient.save
     NEW-OLD atomic charge density approx. for the potential
     NEW k-points: (use verbosity='high' to print them)
     extrapolated charge   23.58130, renormalised to   24.00000

     total cpu time spent up to now is     3462.5 secs

     per-process dynamical memory:    17.6 Mb

     Self-consistent Calculation

     iteration #  1     ecut=   100.00 Ry     beta=0.30
     Davidson diagonalization with overlap
     ethr =  1.00E-06,  avg # of iterations =  7.8

     total cpu time spent up to now is     3538.5 secs

     total energy              =    -139.47823787 Ry
     Harris-Foulkes estimate   =    -139.63387800 Ry
     estimated scf accuracy    <       0.04787158 Ry

     iteration #  2     ecut=   100.00 Ry     beta=0.30
     Davidson diagonalization with overlap
     ethr =  1.99E-04,  avg # of iterations =  2.0

     total cpu time spent up to now is     3567.6 secs

     total energy              =    -139.48366221 Ry
     Harris-Foulkes estimate   =    -139.48760462 Ry
     estimated scf accuracy    <       0.02024812 Ry

     iteration #  3     ecut=   100.00 Ry     beta=0.30
     Davidson diagonalization with overlap
     ethr =  8.44E-05,  avg # of iterations =  1.0

     total cpu time spent up to now is     3588.7 secs

     total energy              =    -139.47778905 Ry
     Harris-Foulkes estimate   =    -139.48392395 Ry
     estimated scf accuracy    <       0.01094102 Ry

     iteration #  4     ecut=   100.00 Ry     beta=0.30
     Davidson diagonalization with overlap
     ethr =  4.56E-05,  avg # of iterations =  2.1

     total cpu time spent up to now is     3615.3 secs

     total energy              =    -139.47982938 Ry
     Harris-Foulkes estimate   =    -139.47989638 Ry
     estimated scf accuracy    <       0.00030955 Ry

     iteration #  5     ecut=   100.00 Ry     beta=0.30
     Davidson diagonalization with overlap
     ethr =  1.29E-06,  avg # of iterations =  2.0

     total cpu time spent up to now is     3640.0 secs

     total energy              =    -139.47981506 Ry
     Harris-Foulkes estimate   =    -139.47986092 Ry
     estimated scf accuracy    <       0.00011645 Ry

     iteration #  6     ecut=   100.00 Ry     beta=0.30
     Davidson diagonalization with overlap
     ethr =  4.85E-07,  avg # of iterations =  2.0

     total cpu time spent up to now is     3669.1 secs

     total energy              =    -139.47983693 Ry
     Harris-Foulkes estimate   =    -139.47983977 Ry
     estimated scf accuracy    <       0.00002327 Ry

     iteration #  7     ecut=   100.00 Ry     beta=0.30
     Davidson diagonalization with overlap
     ethr =  9.70E-08,  avg # of iterations =  1.0

     total cpu time spent up to now is     3689.9 secs

     total energy              =    -139.47982830 Ry
     Harris-Foulkes estimate   =    -139.47983723 Ry
     estimated scf accuracy    <       0.00001608 Ry

     iteration #  8     ecut=   100.00 Ry     beta=0.30
     Davidson diagonalization with overlap
     ethr =  6.70E-08,  avg # of iterations =  2.0

     total cpu time spent up to now is     3717.5 secs

     End of self-consistent calculation

     Number of k-points >= 100: set verbosity='high' to print the bands.

!    total energy              =    -139.47983206 Ry
     Harris-Foulkes estimate   =    -139.47983251 Ry
     estimated scf accuracy    <       0.00000079 Ry

     The total energy is the sum of the following terms:

     one-electron contribution =      -6.69737610 Ry
     hartree contribution      =      21.64810339 Ry
     xc contribution           =     -27.05969964 Ry
     ewald contribution        =    -127.37085970 Ry

     convergence has been achieved in   8 iterations

     Forces acting on atoms (Ry/au):

     atom    1 type  3   force =    -0.00372033    0.00214793    0.00106759
     atom    2 type  2   force =    -0.09861827    0.05693729    0.04537948
     atom    3 type  2   force =     0.09654499   -0.05574028   -0.03149101
     atom    4 type  1   force =    -0.06063475    0.03500749   -0.02601508
     atom    5 type  1   force =     0.06642835   -0.03835243    0.01105902

     Total force =     0.200127     Total SCF correction =     0.001456


     entering subroutine stress ...

          total   stress  (Ry/bohr**3)                   (kbar)     P= 1668.32
   0.01213144  -0.00091904  -0.00023702       1784.60   -135.20    -34.87
  -0.00091904   0.01107023   0.00013684       -135.20   1628.49     20.13
  -0.00023702   0.00013684   0.01082145        -34.87     20.13   1591.89


     number of scf cycles    =   9
     number of bfgs steps    =   8

     enthalpy old            =    -137.6675035011 Ry
     enthalpy new            =    -137.6933386325 Ry

     CASE: enthalpy_new < enthalpy_old

     new trust radius        =       0.0697921292 bohr
     new conv_thr            =       0.0000009862 Ry

     new unit-cell volume =    177.62314 a.u.^3 (    26.32103 Ang^3 )

CELL_PARAMETERS (alat=  5.86000000)
   1.007761668   0.129507195   0.067592536
  -0.391724313   0.937500803  -0.067592536
   0.135438378  -0.078195384   0.899752247

ATOMIC_POSITIONS (crystal)
Ca       0.000138741  -0.000138741   0.005994517
O        0.320353348   0.679646652   0.329689659
O        0.679007230   0.320992770   0.689057145
H        0.483488480   0.516511520   0.741110203
H        0.517012200   0.482987800   0.244148478



     Writing output data file CaOH2_ambient.save
     NEW-OLD atomic charge density approx. for the potential
     NEW k-points: (use verbosity='high' to print them)
     extrapolated charge   24.29994, renormalised to   24.00000

     total cpu time spent up to now is     3807.9 secs

     per-process dynamical memory:    17.6 Mb

     Self-consistent Calculation

     iteration #  1     ecut=   100.00 Ry     beta=0.30
     Davidson diagonalization with overlap
     ethr =  1.00E-06,  avg # of iterations =  6.0

     total cpu time spent up to now is     3868.5 secs

     total energy              =    -139.51060419 Ry
     Harris-Foulkes estimate   =    -139.41766780 Ry
     estimated scf accuracy    <       0.01100556 Ry

     iteration #  2     ecut=   100.00 Ry     beta=0.30
     Davidson diagonalization with overlap
     ethr =  4.59E-05,  avg # of iterations =  2.8

     total cpu time spent up to now is     3900.3 secs

     total energy              =    -139.51495859 Ry
     Harris-Foulkes estimate   =    -139.51542701 Ry
     estimated scf accuracy    <       0.00267394 Ry

     iteration #  3     ecut=   100.00 Ry     beta=0.30
     Davidson diagonalization with overlap
     ethr =  1.11E-05,  avg # of iterations =  1.0

     total cpu time spent up to now is     3921.1 secs

     total energy              =    -139.51398061 Ry
     Harris-Foulkes estimate   =    -139.51499743 Ry
     estimated scf accuracy    <       0.00163931 Ry

     iteration #  4     ecut=   100.00 Ry     beta=0.30
     Davidson diagonalization with overlap
     ethr =  6.83E-06,  avg # of iterations =  2.0

     total cpu time spent up to now is     3948.5 secs

     total energy              =    -139.51434833 Ry
     Harris-Foulkes estimate   =    -139.51437253 Ry
     estimated scf accuracy    <       0.00010241 Ry

     iteration #  5     ecut=   100.00 Ry     beta=0.30
     Davidson diagonalization with overlap
     ethr =  4.27E-07,  avg # of iterations =  2.0

     total cpu time spent up to now is     3971.1 secs

     total energy              =    -139.51433242 Ry
     Harris-Foulkes estimate   =    -139.51435414 Ry
     estimated scf accuracy    <       0.00004197 Ry

     iteration #  6     ecut=   100.00 Ry     beta=0.30
     Davidson diagonalization with overlap
     ethr =  1.75E-07,  avg # of iterations =  2.0

     total cpu time spent up to now is     3999.2 secs

     total energy              =    -139.51434391 Ry
     Harris-Foulkes estimate   =    -139.51434389 Ry
     estimated scf accuracy    <       0.00000352 Ry

     iteration #  7     ecut=   100.00 Ry     beta=0.30
     Davidson diagonalization with overlap
     ethr =  1.47E-08,  avg # of iterations =  1.0

     total cpu time spent up to now is     4020.1 secs

     total energy              =    -139.51434243 Ry
     Harris-Foulkes estimate   =    -139.51434398 Ry
     estimated scf accuracy    <       0.00000338 Ry

     iteration #  8     ecut=   100.00 Ry     beta=0.30
     Davidson diagonalization with overlap
     ethr =  1.41E-08,  avg # of iterations =  2.0

     total cpu time spent up to now is     4046.7 secs

     End of self-consistent calculation

     Number of k-points >= 100: set verbosity='high' to print the bands.

!    total energy              =    -139.51434290 Ry
     Harris-Foulkes estimate   =    -139.51434294 Ry
     estimated scf accuracy    <       0.00000006 Ry

     The total energy is the sum of the following terms:

     one-electron contribution =      -6.77810127 Ry
     hartree contribution      =      21.49699286 Ry
     xc contribution           =     -26.96609147 Ry
     ewald contribution        =    -127.26714301 Ry

     convergence has been achieved in   8 iterations

     Forces acting on atoms (Ry/au):

     atom    1 type  3   force =    -0.00223595    0.00129092    0.00234293
     atom    2 type  2   force =    -0.02782008    0.01606193   -0.01435150
     atom    3 type  2   force =     0.03126691   -0.01805196    0.02370398
     atom    4 type  1   force =    -0.02426031    0.01400669   -0.01613311
     atom    5 type  1   force =     0.02304943   -0.01330760    0.00443770

     Total force =     0.069918     Total SCF correction =     0.000564


     entering subroutine stress ...

          total   stress  (Ry/bohr**3)                   (kbar)     P= 1515.27
   0.01048671  -0.00012330   0.00006242       1542.65    -18.14      9.18
  -0.00012330   0.01034434  -0.00003604        -18.14   1521.70     -5.30
   0.00006242  -0.00003604   0.01007071          9.18     -5.30   1481.45


     number of scf cycles    =  10
     number of bfgs steps    =   9

     enthalpy old            =    -137.6933386325 Ry
     enthalpy new            =    -137.7031562559 Ry

     CASE: enthalpy_new < enthalpy_old

     new trust radius        =       0.0400205459 bohr
     new conv_thr            =       0.0000003127 Ry

     new unit-cell volume =    177.98790 a.u.^3 (    26.37509 Ang^3 )

CELL_PARAMETERS (alat=  5.86000000)
   1.006272930   0.130338520   0.069635395
  -0.390259996   0.936627180  -0.069635395
   0.140589496  -0.081169383   0.904424753

ATOMIC_POSITIONS (crystal)
Ca      -0.000096374   0.000096374   0.006508091
O        0.319298220   0.680701780   0.324149962
O        0.680145608   0.319854392   0.695764135
H        0.480237382   0.519762618   0.739885248
H        0.520415165   0.479584835   0.243692564



     Writing output data file CaOH2_ambient.save
     NEW-OLD atomic charge density approx. for the potential
     NEW k-points: (use verbosity='high' to print them)
     extrapolated charge   24.04509, renormalised to   24.00000

     total cpu time spent up to now is     4137.2 secs

     per-process dynamical memory:    17.6 Mb

     Self-consistent Calculation

     iteration #  1     ecut=   100.00 Ry     beta=0.30
     Davidson diagonalization with overlap
     ethr =  1.00E-06,  avg # of iterations =  5.4

     total cpu time spent up to now is     4190.7 secs

     total energy              =    -139.52069406 Ry
     Harris-Foulkes estimate   =    -139.50616444 Ry
     estimated scf accuracy    <       0.00162006 Ry

     iteration #  2     ecut=   100.00 Ry     beta=0.30
     Davidson diagonalization with overlap
     ethr =  6.75E-06,  avg # of iterations =  2.0

     total cpu time spent up to now is     4217.6 secs

     total energy              =    -139.52065597 Ry
     Harris-Foulkes estimate   =    -139.52084556 Ry
     estimated scf accuracy    <       0.00064671 Ry

     iteration #  3     ecut=   100.00 Ry     beta=0.30
     Davidson diagonalization with overlap
     ethr =  2.69E-06,  avg # of iterations =  1.0

     total cpu time spent up to now is     4238.5 secs

     total energy              =    -139.52053931 Ry
     Harris-Foulkes estimate   =    -139.52067567 Ry
     estimated scf accuracy    <       0.00023559 Ry

     iteration #  4     ecut=   100.00 Ry     beta=0.30
     Davidson diagonalization with overlap
     ethr =  9.82E-07,  avg # of iterations =  2.1

     total cpu time spent up to now is     4265.5 secs

     total energy              =    -139.52058217 Ry
     Harris-Foulkes estimate   =    -139.52058605 Ry
     estimated scf accuracy    <       0.00001036 Ry

     iteration #  5     ecut=   100.00 Ry     beta=0.30
     Davidson diagonalization with overlap
     ethr =  4.32E-08,  avg # of iterations =  2.0

     total cpu time spent up to now is     4293.4 secs

     total energy              =    -139.52058286 Ry
     Harris-Foulkes estimate   =    -139.52058389 Ry
     estimated scf accuracy    <       0.00000229 Ry

     iteration #  6     ecut=   100.00 Ry     beta=0.30
     Davidson diagonalization with overlap
     ethr =  9.52E-09,  avg # of iterations =  2.0

     total cpu time spent up to now is     4319.5 secs

     total energy              =    -139.52058282 Ry
     Harris-Foulkes estimate   =    -139.52058318 Ry
     estimated scf accuracy    <       0.00000070 Ry

     iteration #  7     ecut=   100.00 Ry     beta=0.30
     Davidson diagonalization with overlap
     ethr =  2.92E-09,  avg # of iterations =  2.0

     total cpu time spent up to now is     4346.6 secs

     End of self-consistent calculation

     Number of k-points >= 100: set verbosity='high' to print the bands.

!    total energy              =    -139.52058295 Ry
     Harris-Foulkes estimate   =    -139.52058296 Ry
     estimated scf accuracy    <       0.00000003 Ry

     The total energy is the sum of the following terms:

     one-electron contribution =      -6.81884331 Ry
     hartree contribution      =      21.50622065 Ry
     xc contribution           =     -26.93828797 Ry
     ewald contribution        =    -127.26967231 Ry

     convergence has been achieved in   7 iterations

     Forces acting on atoms (Ry/au):

     atom    1 type  3   force =    -0.00064083    0.00036998    0.00268998
     atom    2 type  2   force =    -0.00927353    0.00535407   -0.00193623
     atom    3 type  2   force =     0.00709155   -0.00409431    0.01081603
     atom    4 type  1   force =     0.00004331   -0.00002501   -0.01727325
     atom    5 type  1   force =     0.00277949   -0.00160474    0.00570346

     Total force =     0.025523     Total SCF correction =     0.000502


     entering subroutine stress ...

          total   stress  (Ry/bohr**3)                   (kbar)     P= 1488.92
   0.01012583   0.00004858  -0.00001586       1489.56      7.15     -2.33
   0.00004858   0.01018193   0.00000916          7.15   1497.81      1.35
  -0.00001586   0.00000916   0.01005659         -2.33      1.35   1479.37


     number of scf cycles    =  11
     number of bfgs steps    =  10

     enthalpy old            =    -137.7031562559 Ry
     enthalpy new            =    -137.7056769080 Ry

     CASE: enthalpy_new < enthalpy_old

     new trust radius        =       0.0157947422 bohr
     new conv_thr            =       0.0000001727 Ry

     new unit-cell volume =    177.62609 a.u.^3 (    26.32147 Ang^3 )

CELL_PARAMETERS (alat=  5.86000000)
   1.004658260   0.131810192   0.069607095
  -0.388178156   0.935964671  -0.069607095
   0.140593830  -0.081171886   0.904329812

ATOMIC_POSITIONS (crystal)
Ca      -0.000184489   0.000184489   0.006888777
O        0.318303573   0.681696427   0.322911920
O        0.680842784   0.319157216   0.698127000
H        0.479688978   0.520311022   0.737796745
H        0.521349154   0.478650846   0.244275558



     Writing output data file CaOH2_ambient.save
     NEW-OLD atomic charge density approx. for the potential
     NEW k-points: (use verbosity='high' to print them)
     extrapolated charge   23.95519, renormalised to   24.00000

     total cpu time spent up to now is     4437.6 secs

     per-process dynamical memory:    17.6 Mb

     Self-consistent Calculation

     iteration #  1     ecut=   100.00 Ry     beta=0.30
     Davidson diagonalization with overlap
     ethr =  1.00E-06,  avg # of iterations =  4.2

     total cpu time spent up to now is     4485.4 secs

     total energy              =    -139.51725618 Ry
     Harris-Foulkes estimate   =    -139.53209328 Ry
     estimated scf accuracy    <       0.00022337 Ry

     iteration #  2     ecut=   100.00 Ry     beta=0.30
     Davidson diagonalization with overlap
     ethr =  9.31E-07,  avg # of iterations =  2.8

     total cpu time spent up to now is     4518.4 secs

     total energy              =    -139.51732653 Ry
     Harris-Foulkes estimate   =    -139.51734672 Ry
     estimated scf accuracy    <       0.00014034 Ry

     iteration #  3     ecut=   100.00 Ry     beta=0.30
     Davidson diagonalization with overlap
     ethr =  5.85E-07,  avg # of iterations =  1.0

     total cpu time spent up to now is     4540.4 secs

     total energy              =    -139.51727119 Ry
     Harris-Foulkes estimate   =    -139.51732769 Ry
     estimated scf accuracy    <       0.00009329 Ry

     iteration #  4     ecut=   100.00 Ry     beta=0.30
     Davidson diagonalization with overlap
     ethr =  3.89E-07,  avg # of iterations =  2.2

     total cpu time spent up to now is     4569.2 secs

     total energy              =    -139.51729112 Ry
     Harris-Foulkes estimate   =    -139.51729465 Ry
     estimated scf accuracy    <       0.00000873 Ry

     iteration #  5     ecut=   100.00 Ry     beta=0.30
     Davidson diagonalization with overlap
     ethr =  3.64E-08,  avg # of iterations =  2.0

     total cpu time spent up to now is     4596.3 secs

     total energy              =    -139.51729156 Ry
     Harris-Foulkes estimate   =    -139.51729220 Ry
     estimated scf accuracy    <       0.00000118 Ry

     iteration #  6     ecut=   100.00 Ry     beta=0.30
     Davidson diagonalization with overlap
     ethr =  4.93E-09,  avg # of iterations =  2.9

     total cpu time spent up to now is     4630.7 secs

     total energy              =    -139.51729185 Ry
     Harris-Foulkes estimate   =    -139.51729195 Ry
     estimated scf accuracy    <       0.00000066 Ry

     iteration #  7     ecut=   100.00 Ry     beta=0.30
     Davidson diagonalization with overlap
     ethr =  2.74E-09,  avg # of iterations =  1.0

     total cpu time spent up to now is     4653.7 secs

     total energy              =    -139.51729165 Ry
     Harris-Foulkes estimate   =    -139.51729186 Ry
     estimated scf accuracy    <       0.00000040 Ry

     iteration #  8     ecut=   100.00 Ry     beta=0.30
     Davidson diagonalization with overlap
     ethr =  1.68E-09,  avg # of iterations =  2.0

     total cpu time spent up to now is     4683.5 secs

     End of self-consistent calculation

     Number of k-points >= 100: set verbosity='high' to print the bands.

!    total energy              =    -139.51729173 Ry
     Harris-Foulkes estimate   =    -139.51729174 Ry
     estimated scf accuracy    <          5.1E-09 Ry

     The total energy is the sum of the following terms:

     one-electron contribution =      -6.65799215 Ry
     hartree contribution      =      21.46509039 Ry
     xc contribution           =     -26.93686475 Ry
     ewald contribution        =    -127.38752523 Ry

     convergence has been achieved in   8 iterations

     Forces acting on atoms (Ry/au):

     atom    1 type  3   force =    -0.00058372    0.00033701    0.00288297
     atom    2 type  2   force =     0.00153074   -0.00088377    0.00186641
     atom    3 type  2   force =    -0.00195311    0.00112763    0.00687170
     atom    4 type  1   force =     0.00576116   -0.00332621   -0.01599789
     atom    5 type  1   force =    -0.00475507    0.00274534    0.00437682

     Total force =     0.020425     Total SCF correction =     0.000209


     entering subroutine stress ...

          total   stress  (Ry/bohr**3)                   (kbar)     P= 1497.62
   0.01018924  -0.00001198   0.00005451       1498.89     -1.76      8.02
  -0.00001198   0.01017541  -0.00003147         -1.76   1496.85     -4.63
   0.00005451  -0.00003147   0.01017727          8.02     -4.63   1497.13


[...]
     Harris-Foulkes estimate   =    -139.51719552 Ry
     estimated scf accuracy    <       0.00001378 Ry

     iteration #  4     ecut=   100.00 Ry     beta=0.30
     Davidson diagonalization with overlap
     ethr =  5.74E-08,  avg # of iterations =  2.0

     total cpu time spent up to now is     5493.6 secs

     total energy              =    -139.51719173 Ry
     Harris-Foulkes estimate   =    -139.51719187 Ry
     estimated scf accuracy    <       0.00000075 Ry

     iteration #  5     ecut=   100.00 Ry     beta=0.30
     Davidson diagonalization with overlap
     ethr =  3.12E-09,  avg # of iterations =  2.0

     total cpu time spent up to now is     5516.5 secs

     total energy              =    -139.51719170 Ry
     Harris-Foulkes estimate   =    -139.51719179 Ry
     estimated scf accuracy    <       0.00000028 Ry

     iteration #  6     ecut=   100.00 Ry     beta=0.30
     Davidson diagonalization with overlap
     ethr =  1.18E-09,  avg # of iterations =  2.0

     total cpu time spent up to now is     5542.0 secs

     End of self-consistent calculation

     Number of k-points >= 100: set verbosity='high' to print the bands.

!    total energy              =    -139.51719171 Ry
     Harris-Foulkes estimate   =    -139.51719173 Ry
     estimated scf accuracy    <       0.00000003 Ry

     The total energy is the sum of the following terms:

     one-electron contribution =      -6.67716835 Ry
     hartree contribution      =      21.48897199 Ry
     xc contribution           =     -26.93899135 Ry
     ewald contribution        =    -127.39000401 Ry

     convergence has been achieved in   6 iterations

     Forces acting on atoms (Ry/au):

     atom    1 type  3   force =     0.00000270   -0.00000156    0.00418860
     atom    2 type  2   force =     0.00603664   -0.00348525    0.00655396
     atom    3 type  2   force =    -0.00921842    0.00532226    0.00521062
     atom    4 type  1   force =     0.00958847   -0.00553591   -0.00780659
     atom    5 type  1   force =    -0.00640938    0.00370046   -0.00814659

     Total force =     0.023542     Total SCF correction =     0.000204


     entering subroutine stress ...

          total   stress  (Ry/bohr**3)                   (kbar)     P= 1504.96
   0.01016519   0.00001826  -0.00003640       1495.35      2.69     -5.35
   0.00001826   0.01018628   0.00002102          2.69   1498.45      3.09
  -0.00003640   0.00002102   0.01034013         -5.35      3.09   1521.09


     number of scf cycles    =  15
     number of bfgs steps    =  14

     enthalpy old            =    -137.7067044434 Ry
     enthalpy new            =    -137.7072188300 Ry

     CASE: enthalpy_new < enthalpy_old

     new trust radius        =       0.0513422215 bohr
     new conv_thr            =       0.0000000514 Ry

     new unit-cell volume =    177.73349 a.u.^3 (    26.33739 Ang^3 )

CELL_PARAMETERS (alat=  5.86000000)
   1.004227598   0.130874944   0.072321561
  -0.388772773   0.935124083  -0.072321561
   0.145122837  -0.083786709   0.907263620

ATOMIC_POSITIONS (crystal)
Ca      -0.000708699   0.000708699   0.011596692
O        0.314815246   0.685184754   0.326501545
O        0.682994482   0.317005518   0.709276814
H        0.485603320   0.514396680   0.714577874
H        0.517295652   0.482704348   0.248047076



     Writing output data file CaOH2_ambient.save
     NEW-OLD atomic charge density approx. for the potential
     NEW k-points: (use verbosity='high' to print them)
     extrapolated charge   24.02839, renormalised to   24.00000

     total cpu time spent up to now is     5631.9 secs

     per-process dynamical memory:    17.6 Mb

     Self-consistent Calculation

     iteration #  1     ecut=   100.00 Ry     beta=0.30
     Davidson diagonalization with overlap
     ethr =  1.00E-06,  avg # of iterations =  4.3

     total cpu time spent up to now is     5684.3 secs

     total energy              =    -139.52019293 Ry
     Harris-Foulkes estimate   =    -139.51073732 Ry
     estimated scf accuracy    <       0.00024862 Ry

     iteration #  2     ecut=   100.00 Ry     beta=0.30
     Davidson diagonalization with overlap
     ethr =  1.04E-06,  avg # of iterations =  2.0

     total cpu time spent up to now is     5711.6 secs

     total energy              =    -139.52020897 Ry
     Harris-Foulkes estimate   =    -139.52023218 Ry
     estimated scf accuracy    <       0.00014590 Ry

     iteration #  3     ecut=   100.00 Ry     beta=0.30
     Davidson diagonalization with overlap
     ethr =  6.08E-07,  avg # of iterations =  1.0

     total cpu time spent up to now is     5732.2 secs

     total energy              =    -139.52017728 Ry
     Harris-Foulkes estimate   =    -139.52021072 Ry
     estimated scf accuracy    <       0.00007622 Ry

     iteration #  4     ecut=   100.00 Ry     beta=0.30
     Davidson diagonalization with overlap
     ethr =  3.18E-07,  avg # of iterations =  2.0

     total cpu time spent up to now is     5757.9 secs

     total energy              =    -139.52018943 Ry
     Harris-Foulkes estimate   =    -139.52019012 Ry
     estimated scf accuracy    <       0.00000400 Ry

     iteration #  5     ecut=   100.00 Ry     beta=0.30
     Davidson diagonalization with overlap
     ethr =  1.67E-08,  avg # of iterations =  1.2

     total cpu time spent up to now is     5778.8 secs

     total energy              =    -139.52018856 Ry
     Harris-Foulkes estimate   =    -139.52018959 Ry
     estimated scf accuracy    <       0.00000213 Ry

     iteration #  6     ecut=   100.00 Ry     beta=0.30
     Davidson diagonalization with overlap
     ethr =  8.88E-09,  avg # of iterations =  2.0

     total cpu time spent up to now is     5807.4 secs

     total energy              =    -139.52018915 Ry
     Harris-Foulkes estimate   =    -139.52018924 Ry
     estimated scf accuracy    <       0.00000038 Ry

     iteration #  7     ecut=   100.00 Ry     beta=0.30
     Davidson diagonalization with overlap
     ethr =  1.59E-09,  avg # of iterations =  1.0

     total cpu time spent up to now is     5828.0 secs

     total energy              =    -139.52018908 Ry
     Harris-Foulkes estimate   =    -139.52018916 Ry
     estimated scf accuracy    <       0.00000016 Ry

     iteration #  8     ecut=   100.00 Ry     beta=0.30
     Davidson diagonalization with overlap
     ethr =  6.65E-10,  avg # of iterations =  2.0

     total cpu time spent up to now is     5855.9 secs

     End of self-consistent calculation

     Number of k-points >= 100: set verbosity='high' to print the bands.

!    total energy              =    -139.52018911 Ry
     Harris-Foulkes estimate   =    -139.52018912 Ry
     estimated scf accuracy    <       0.00000001 Ry

     The total energy is the sum of the following terms:

     one-electron contribution =      -6.85131217 Ry
     hartree contribution      =      21.55023522 Ry
     xc contribution           =     -26.94145990 Ry
     ewald contribution        =    -127.27765226 Ry

     convergence has been achieved in   8 iterations

     Forces acting on atoms (Ry/au):

     atom    1 type  3   force =    -0.00032178    0.00018578    0.00486453
     atom    2 type  2   force =     0.00406126   -0.00234477    0.01013383
     atom    3 type  2   force =    -0.00856182    0.00494317    0.00432651
     atom    4 type  1   force =     0.00767558   -0.00443150   -0.00358852
     atom    5 type  1   force =    -0.00285324    0.00164732   -0.01573635

     Total force =     0.024796     Total SCF correction =     0.000083


     entering subroutine stress ...

          total   stress  (Ry/bohr**3)                   (kbar)     P= 1504.27
   0.01016642   0.00001104  -0.00003034       1495.53      1.62     -4.46
   0.00001104   0.01017918   0.00001752          1.62   1497.41      2.58
  -0.00003034   0.00001752   0.01033193         -4.46      2.58   1519.88


     number of scf cycles    =  16
     number of bfgs steps    =  15

     enthalpy old            =    -137.7072188300 Ry
     enthalpy new            =    -137.7078772615 Ry

     CASE: enthalpy_new < enthalpy_old

     new trust radius        =       0.0771167077 bohr
     new conv_thr            =       0.0000000658 Ry

     new unit-cell volume =    178.14180 a.u.^3 (    26.39789 Ang^3 )

CELL_PARAMETERS (alat=  5.86000000)
   1.003692444   0.130151667   0.073114702
  -0.389131572   0.934298987  -0.073114702
   0.147171351  -0.084969419   0.911109697

ATOMIC_POSITIONS (crystal)
Ca      -0.001035403   0.001035403   0.015173279
O        0.312927595   0.687072405   0.330132212
O        0.683542360   0.316457640   0.716605280
H        0.490201324   0.509798676   0.700439696
H        0.514364123   0.485635877   0.247649533



     Writing output data file CaOH2_ambient.save
     NEW-OLD atomic charge density approx. for the potential
     NEW k-points: (use verbosity='high' to print them)
     extrapolated charge   24.05042, renormalised to   24.00000

     total cpu time spent up to now is     5945.8 secs

     per-process dynamical memory:    17.6 Mb

     Self-consistent Calculation

     iteration #  1     ecut=   100.00 Ry     beta=0.30
     Davidson diagonalization with overlap
     ethr =  1.00E-06,  avg # of iterations =  5.0

     total cpu time spent up to now is     5999.5 secs

     total energy              =    -139.52510580 Ry
     Harris-Foulkes estimate   =    -139.50795792 Ry
     estimated scf accuracy    <       0.00059411 Ry

     iteration #  2     ecut=   100.00 Ry     beta=0.30
     Davidson diagonalization with overlap
     ethr =  2.48E-06,  avg # of iterations =  2.0

     total cpu time spent up to now is     6030.3 secs

     total energy              =    -139.52517832 Ry
     Harris-Foulkes estimate   =    -139.52522787 Ry
     estimated scf accuracy    <       0.00034572 Ry

     iteration #  3     ecut=   100.00 Ry     beta=0.30
     Davidson diagonalization with overlap
     ethr =  1.44E-06,  avg # of iterations =  1.0

     total cpu time spent up to now is     6051.0 secs

     total energy              =    -139.52509582 Ry
     Harris-Foulkes estimate   =    -139.52518176 Ry
     estimated scf accuracy    <       0.00019508 Ry

     iteration #  4     ecut=   100.00 Ry     beta=0.30
     Davidson diagonalization with overlap
     ethr =  8.13E-07,  avg # of iterations =  2.0

     total cpu time spent up to now is     6077.9 secs

     total energy              =    -139.52512812 Ry
     Harris-Foulkes estimate   =    -139.52512973 Ry
     estimated scf accuracy    <       0.00001111 Ry

     iteration #  5     ecut=   100.00 Ry     beta=0.30
     Davidson diagonalization with overlap
     ethr =  4.63E-08,  avg # of iterations =  1.1

     total cpu time spent up to now is     6098.6 secs

     total energy              =    -139.52512516 Ry
     Harris-Foulkes estimate   =    -139.52512848 Ry
     estimated scf accuracy    <       0.00000678 Ry

     iteration #  6     ecut=   100.00 Ry     beta=0.30
     Davidson diagonalization with overlap
     ethr =  2.83E-08,  avg # of iterations =  2.0

     total cpu time spent up to now is     6126.3 secs

     total energy              =    -139.52512698 Ry
     Harris-Foulkes estimate   =    -139.52512712 Ry
     estimated scf accuracy    <       0.00000077 Ry

     iteration #  7     ecut=   100.00 Ry     beta=0.30
     Davidson diagonalization with overlap
     ethr =  3.21E-09,  avg # of iterations =  1.0

     total cpu time spent up to now is     6147.0 secs

     total energy              =    -139.52512679 Ry
     Harris-Foulkes estimate   =    -139.52512700 Ry
     estimated scf accuracy    <       0.00000040 Ry

     iteration #  8     ecut=   100.00 Ry     beta=0.30
     Davidson diagonalization with overlap
     ethr =  1.68E-09,  avg # of iterations =  2.0

     total cpu time spent up to now is     6176.2 secs

     End of self-consistent calculation

     Number of k-points >= 100: set verbosity='high' to print the bands.

!    total energy              =    -139.52512688 Ry
     Harris-Foulkes estimate   =    -139.52512690 Ry
     estimated scf accuracy    <       0.00000002 Ry

     The total energy is the sum of the following terms:

     one-electron contribution =      -7.14562188 Ry
     hartree contribution      =      21.65273250 Ry
     xc contribution           =     -26.94499234 Ry
     ewald contribution        =    -127.08724516 Ry

     convergence has been achieved in   8 iterations

     Forces acting on atoms (Ry/au):

     atom    1 type  3   force =    -0.00114920    0.00066349    0.00585599
     atom    2 type  2   force =    -0.00033516    0.00019350    0.01551200
     atom    3 type  2   force =    -0.00606326    0.00350062    0.00281816
     atom    4 type  1   force =     0.00451320   -0.00260569    0.00196686
     atom    5 type  1   force =     0.00303442   -0.00175192   -0.02615301

     Total force =     0.032574     Total SCF correction =     0.000138


     entering subroutine stress ...

          total   stress  (Ry/bohr**3)                   (kbar)     P= 1502.42
   0.01017118  -0.00000020  -0.00001640       1496.23     -0.03     -2.41
  -0.00000020   0.01017095   0.00000947         -0.03   1496.20      1.39
  -0.00001640   0.00000947   0.01029755         -2.41      1.39   1514.82


     number of scf cycles    =  17
     number of bfgs steps    =  16

     enthalpy old            =    -137.7078772615 Ry
     enthalpy new            =    -137.7086516010 Ry

     CASE: enthalpy_new < enthalpy_old

     new trust radius        =       0.1092972570 bohr
     new conv_thr            =       0.0000000774 Ry

     new unit-cell volume =    178.77028 a.u.^3 (    26.49102 Ang^3 )

CELL_PARAMETERS (alat=  5.86000000)
   1.002781810   0.129380400   0.074320200
  -0.389344192   0.933124722  -0.074320200
   0.150534956  -0.086911397   0.916988670

ATOMIC_POSITIONS (crystal)
Ca      -0.001652751   0.001652751   0.020845654
O        0.310082524   0.689917476   0.336749335
O        0.683872967   0.316127033   0.727346679
H        0.497116907   0.502883093   0.680720221
H        0.510580354   0.489419646   0.244338112



     Writing output data file CaOH2_ambient.save
     NEW-OLD atomic charge density approx. for the potential
     NEW k-points: (use verbosity='high' to print them)
     extrapolated charge   24.07734, renormalised to   24.00000

     total cpu time spent up to now is     6266.3 secs

     per-process dynamical memory:    17.6 Mb

     Self-consistent Calculation

     iteration #  1     ecut=   100.00 Ry     beta=0.30
     Davidson diagonalization with overlap
     ethr =  1.00E-06,  avg # of iterations =  5.2

     total cpu time spent up to now is     6324.9 secs

     total energy              =    -139.53245781 Ry
     Harris-Foulkes estimate   =    -139.50535998 Ry
     estimated scf accuracy    <       0.00132087 Ry

     iteration #  2     ecut=   100.00 Ry     beta=0.30
     Davidson diagonalization with overlap
     ethr =  5.50E-06,  avg # of iterations =  2.0

     total cpu time spent up to now is     6354.6 secs

     total energy              =    -139.53264523 Ry
     Harris-Foulkes estimate   =    -139.53274910 Ry
     estimated scf accuracy    <       0.00074050 Ry

     iteration #  3     ecut=   100.00 Ry     beta=0.30
     Davidson diagonalization with overlap
     ethr =  3.09E-06,  avg # of iterations =  1.0

     total cpu time spent up to now is     6375.3 secs

     total energy              =    -139.53246741 Ry
     Harris-Foulkes estimate   =    -139.53265256 Ry
     estimated scf accuracy    <       0.00042166 Ry

     iteration #  4     ecut=   100.00 Ry     beta=0.30
     Davidson diagonalization with overlap
     ethr =  1.76E-06,  avg # of iterations =  2.0

     total cpu time spent up to now is     6401.5 secs

     total energy              =    -139.53253754 Ry
     Harris-Foulkes estimate   =    -139.53254069 Ry
     estimated scf accuracy    <       0.00002356 Ry

     iteration #  5     ecut=   100.00 Ry     beta=0.30
     Davidson diagonalization with overlap
     ethr =  9.82E-08,  avg # of iterations =  1.1

     total cpu time spent up to now is     6422.3 secs

     total energy              =    -139.53253106 Ry
     Harris-Foulkes estimate   =    -139.53253827 Ry
     estimated scf accuracy    <       0.00001499 Ry

     iteration #  6     ecut=   100.00 Ry     beta=0.30
     Davidson diagonalization with overlap
     ethr =  6.25E-08,  avg # of iterations =  2.0

     total cpu time spent up to now is     6451.7 secs

     total energy              =    -139.53253498 Ry
     Harris-Foulkes estimate   =    -139.53253520 Ry
     estimated scf accuracy    <       0.00000150 Ry

     iteration #  7     ecut=   100.00 Ry     beta=0.30
     Davidson diagonalization with overlap
     ethr =  6.26E-09,  avg # of iterations =  1.0

     total cpu time spent up to now is     6472.4 secs

     total energy              =    -139.53253456 Ry
     Harris-Foulkes estimate   =    -139.53253502 Ry
     estimated scf accuracy    <       0.00000091 Ry

     iteration #  8     ecut=   100.00 Ry     beta=0.30
     Davidson diagonalization with overlap
     ethr =  3.80E-09,  avg # of iterations =  2.0

     total cpu time spent up to now is     6500.1 secs

     End of self-consistent calculation

     Number of k-points >= 100: set verbosity='high' to print the bands.

!    total energy              =    -139.53253476 Ry
     Harris-Foulkes estimate   =    -139.53253479 Ry
     estimated scf accuracy    <       0.00000004 Ry

     The total energy is the sum of the following terms:

     one-electron contribution =      -7.57317830 Ry
     hartree contribution      =      21.80011453 Ry
     xc contribution           =     -26.94768401 Ry
     ewald contribution        =    -126.81178698 Ry

     convergence has been achieved in   8 iterations

     Forces acting on atoms (Ry/au):

     atom    1 type  3   force =    -0.00239795    0.00138445    0.00756061
     atom    2 type  2   force =    -0.00659820    0.00380947    0.02279019
     atom    3 type  2   force =    -0.00293829    0.00169642   -0.00052287
     atom    4 type  1   force =     0.00169362   -0.00097781    0.00929073
     atom    5 type  1   force =     0.01024081   -0.00591253   -0.03911866

     Total force =     0.049136     Total SCF correction =     0.000214


     entering subroutine stress ...

          total   stress  (Ry/bohr**3)                   (kbar)     P= 1496.87
   0.01015328  -0.00000764  -0.00000275       1493.60     -1.12     -0.40
  -0.00000764   0.01014446   0.00000159         -1.12   1492.30      0.23
  -0.00000275   0.00000159   0.01022871         -0.40      0.23   1504.69


     number of scf cycles    =  18
     number of bfgs steps    =  17

     enthalpy old            =    -137.7086516010 Ry
     enthalpy new            =    -137.7096509172 Ry

     CASE: enthalpy_new < enthalpy_old

     new trust radius        =       0.1739328676 bohr
     new conv_thr            =       0.0000000999 Ry

     new unit-cell volume =    179.69211 a.u.^3 (    26.62762 Ang^3 )

CELL_PARAMETERS (alat=  5.86000000)
   1.001216036   0.128636689   0.076254395
  -0.389205377   0.931396866  -0.076254395
   0.156080321  -0.090113015   0.925905176

ATOMIC_POSITIONS (crystal)
Ca      -0.002930414   0.002930414   0.030885160
O        0.305168024   0.694831976   0.350375797
O        0.683608999   0.316391001   0.744104597
H        0.509102304   0.490897696   0.650214929
H        0.505051087   0.494948913   0.234419517



     Writing output data file CaOH2_ambient.save
     NEW-OLD atomic charge density approx. for the potential
     NEW k-points: (use verbosity='high' to print them)
     extrapolated charge   24.11286, renormalised to   24.00000

     total cpu time spent up to now is     6589.4 secs

     per-process dynamical memory:    17.6 Mb

     Self-consistent Calculation

     iteration #  1     ecut=   100.00 Ry     beta=0.30
