
     Program PWSCF v.5.0.2 (svn rev. 9392) starts on 22Apr2014 at  2:32:32 

     This program is part of the open-source Quantum ESPRESSO suite
     for quantum simulation of materials; please cite
         "P. Giannozzi et al., J. Phys.:Condens. Matter 21 395502 (2009);
          URL http://www.quantum-espresso.org", 
     in publications or presentations arising from this work. More details at
     http://www.quantum-espresso.org/quote.php

     Serial version

     Current dimensions of program PWSCF are:
     Max number of different atomic species (ntypx) = 10
     Max number of k-points (npk) =  40000
     Max angular momentum in pseudopotentials (lmaxx) =  3
     Waiting for input...
     Reading input from standard input

     G-vector sticks info
     --------------------
     sticks:   dense  smooth     PW     G-vecs:    dense   smooth      PW
     Sum         757     757    283                22473    22473    5157



     bravais-lattice index     =            4
     lattice parameter (alat)  =       5.8600  a.u.
     unit-cell volume          =     232.1281 (a.u.)^3
     number of atoms/cell      =            5
     number of atomic types    =            3
     number of electrons       =        24.00
     number of Kohn-Sham states=           12
     kinetic-energy cutoff     =     100.0000  Ry
     charge density cutoff     =     320.0000  Ry
     convergence threshold     =      1.0E-06
     mixing beta               =       0.3000
     number of iterations used =           16  local-TF  mixing
     Exchange-correlation      = PBE ( 1 4 3 4 0)
     EXX-fraction              =        0.00
     nstep                     =           50


     celldm(1)=   5.860000  celldm(2)=   0.000000  celldm(3)=   1.332000
     celldm(4)=   0.000000  celldm(5)=   0.000000  celldm(6)=   0.000000

     crystal axes: (cart. coord. in units of alat)
               a(1) = (   1.000000   0.000000   0.000000 )  
               a(2) = (  -0.500000   0.866025   0.000000 )  
               a(3) = (   0.000000   0.000000   1.332000 )  

     reciprocal axes: (cart. coord. in units 2 pi/alat)
               b(1) = (  1.000000  0.577350 -0.000000 )  
               b(2) = (  0.000000  1.154701  0.000000 )  
               b(3) = (  0.000000 -0.000000  0.750751 )  


     PseudoPot. # 1 for H  read from file:
     /home/ilia/espresso/pseudo/H.pbe-sp-mt.ncpp
     MD5 check sum: 7a641936b52ccecd26bd1ad87cca5aed
     Pseudo is Norm-conserving, Zval =  1.0
     Generated by old ld1 code (numerical format)
     Using radial grid of 1076 points,  0 beta functions with: 

     PseudoPot. # 2 for O  read from file:
     /home/ilia/espresso/pseudo/O.pbe-sp-mt.ncpp
     MD5 check sum: 8a3d23d410d2f3ebfd0a39faacc72cbb
     Pseudo is Norm-conserving, Zval =  6.0
     Generated by old ld1 code (numerical format)
     Using radial grid of 1130 points,  1 beta functions with: 
                l(1) =   1

     PseudoPot. # 3 for Ca read from file:
     /home/ilia/espresso/pseudo/Ca.pbe-sp-mt_ion2.ncpp
     MD5 check sum: 4bcd670d05521f7b178fdf0a334578ab
     Pseudo is Norm-conserving, Zval = 10.0
     Generated by old ld1 code (numerical format)
     Using radial grid of 1153 points,  1 beta functions with: 
                l(1) =   1

     atomic species   valence    mass     pseudopotential
        H              1.00     1.00700     H ( 1.00)
        O              6.00    16.00000     O ( 1.00)
        Ca            10.00    40.07800     Ca( 1.00)

      6 Sym. Ops. (no inversion) found



   Cartesian axes

     site n.     atom                  positions (alat units)
         1           Ca  tau(   1) = (   0.0000000   0.0000000   0.0000000  )
         2           O   tau(   2) = (   0.0000000   0.5773503   0.6287040  )
         3           O   tau(   3) = (   0.5000000   0.2886751   0.7166160  )
         4           H   tau(   4) = (   0.0000000   0.5773503   0.9430560  )
         5           H   tau(   5) = (   0.5000000   0.2886751   0.3889440  )

     number of k points=    63
                       cart. coord. in units 2pi/alat
        k(    1) = (   0.0833333   0.1443376   0.0625626), wk =   0.0370370
        k(    2) = (   0.0833333   0.1443376   0.1876877), wk =   0.0370370
        k(    3) = (   0.0833333   0.1443376   0.3128128), wk =   0.0370370
        k(    4) = (   0.0833333   0.3367877   0.0625626), wk =   0.0370370
        k(    5) = (   0.0833333   0.3367877   0.1876877), wk =   0.0370370
        k(    6) = (   0.0833333   0.3367877   0.3128128), wk =   0.0370370
        k(    7) = (   0.0833333   0.5292377   0.0625626), wk =   0.0370370
        k(    8) = (   0.0833333   0.5292377   0.1876877), wk =   0.0370370
        k(    9) = (   0.0833333   0.5292377   0.3128128), wk =   0.0370370
        k(   10) = (   0.0833333  -0.4330127   0.0625626), wk =   0.0370370
        k(   11) = (   0.0833333  -0.4330127   0.1876877), wk =   0.0370370
        k(   12) = (   0.0833333  -0.4330127   0.3128128), wk =   0.0370370
        k(   13) = (   0.0833333  -0.2405626   0.0625626), wk =   0.0370370
        k(   14) = (   0.0833333  -0.2405626   0.1876877), wk =   0.0370370
        k(   15) = (   0.0833333  -0.2405626   0.3128128), wk =   0.0370370
        k(   16) = (   0.0833333  -0.0481125   0.0625626), wk =   0.0185185
        k(   17) = (   0.0833333  -0.0481125   0.1876877), wk =   0.0185185
        k(   18) = (   0.0833333  -0.0481125   0.3128128), wk =   0.0185185
        k(   19) = (   0.2500000   0.4330127   0.0625626), wk =   0.0370370
        k(   20) = (   0.2500000   0.4330127   0.1876877), wk =   0.0370370
        k(   21) = (   0.2500000   0.4330127   0.3128128), wk =   0.0370370
        k(   22) = (   0.2500000   0.6254628   0.0625626), wk =   0.0370370
        k(   23) = (   0.2500000   0.6254628   0.1876877), wk =   0.0370370
        k(   24) = (   0.2500000   0.6254628   0.3128128), wk =   0.0370370
        k(   25) = (   0.2500000  -0.3367877   0.0625626), wk =   0.0370370
        k(   26) = (   0.2500000  -0.3367877   0.1876877), wk =   0.0370370
        k(   27) = (   0.2500000  -0.3367877   0.3128128), wk =   0.0370370
        k(   28) = (   0.2500000  -0.1443376   0.0625626), wk =   0.0185185
        k(   29) = (   0.2500000  -0.1443376   0.1876877), wk =   0.0185185
        k(   30) = (   0.2500000  -0.1443376   0.3128128), wk =   0.0185185
        k(   31) = (   0.4166667   0.7216878   0.0625626), wk =   0.0370370
        k(   32) = (   0.4166667   0.7216878   0.1876877), wk =   0.0370370
        k(   33) = (   0.4166667   0.7216878   0.3128128), wk =   0.0370370
        k(   34) = (   0.4166667  -0.2405626   0.0625626), wk =   0.0185185
        k(   35) = (   0.4166667  -0.2405626   0.1876877), wk =   0.0185185
        k(   36) = (   0.4166667  -0.2405626   0.3128128), wk =   0.0185185
        k(   37) = (  -0.0833333  -0.3367877   0.0625626), wk =   0.0370370
        k(   38) = (  -0.0833333  -0.3367877   0.1876877), wk =   0.0370370
        k(   39) = (  -0.0833333  -0.3367877   0.3128128), wk =   0.0370370
        k(   40) = (  -0.0833333  -0.5292377   0.0625626), wk =   0.0370370
        k(   41) = (  -0.0833333  -0.5292377   0.1876877), wk =   0.0370370
        k(   42) = (  -0.0833333  -0.5292377   0.3128128), wk =   0.0370370
        k(   43) = (  -0.0833333   0.4330127   0.0625626), wk =   0.0370370
        k(   44) = (  -0.0833333   0.4330127   0.1876877), wk =   0.0370370
        k(   45) = (  -0.0833333   0.4330127   0.3128128), wk =   0.0370370
        k(   46) = (  -0.0833333   0.2405626   0.0625626), wk =   0.0370370
        k(   47) = (  -0.0833333   0.2405626   0.1876877), wk =   0.0370370
        k(   48) = (  -0.0833333   0.2405626   0.3128128), wk =   0.0370370
        k(   49) = (  -0.0833333   0.0481125   0.0625626), wk =   0.0185185
        k(   50) = (  -0.0833333   0.0481125   0.1876877), wk =   0.0185185
        k(   51) = (  -0.0833333   0.0481125   0.3128128), wk =   0.0185185
        k(   52) = (  -0.2500000  -0.6254628   0.0625626), wk =   0.0370370
        k(   53) = (  -0.2500000  -0.6254628   0.1876877), wk =   0.0370370
        k(   54) = (  -0.2500000  -0.6254628   0.3128128), wk =   0.0370370
        k(   55) = (  -0.2500000   0.3367877   0.0625626), wk =   0.0370370
        k(   56) = (  -0.2500000   0.3367877   0.1876877), wk =   0.0370370
        k(   57) = (  -0.2500000   0.3367877   0.3128128), wk =   0.0370370
        k(   58) = (  -0.2500000   0.1443376   0.0625626), wk =   0.0185185
        k(   59) = (  -0.2500000   0.1443376   0.1876877), wk =   0.0185185
        k(   60) = (  -0.2500000   0.1443376   0.3128128), wk =   0.0185185
        k(   61) = (  -0.4166667   0.2405626   0.0625626), wk =   0.0185185
        k(   62) = (  -0.4166667   0.2405626   0.1876877), wk =   0.0185185
        k(   63) = (  -0.4166667   0.2405626   0.3128128), wk =   0.0185185

     Dense  grid:    22473 G-vectors     FFT dimensions: (  36,  36,  45)

     Largest allocated arrays     est. size (Mb)     dimensions
        Kohn-Sham Wavefunctions         0.72 Mb     (   3953,   12)
        NL pseudopotentials             0.54 Mb     (   3953,    9)
        Each V/rho on FFT grid          0.89 Mb     (  58320)
        Each G-vector array             0.17 Mb     (  22473)
        G-vector shells                 0.17 Mb     (  22473)
     Largest temporary arrays     est. size (Mb)     dimensions
        Auxiliary wavefunctions         2.90 Mb     (   3953,   48)
        Each subspace H/S matrix        0.04 Mb     (  48,  48)
        Each <psi_i|beta_j> matrix      0.00 Mb     (      9,   12)
        Arrays for rho mixing          14.24 Mb     (  58320,  16)

     Initial potential from superposition of free atoms

     starting charge   21.99998, renormalised to   24.00000
     Starting wfc are   14 randomized atomic wfcs

     total cpu time spent up to now is       33.7 secs

     per-process dynamical memory:    13.9 Mb

     Self-consistent Calculation

     iteration #  1     ecut=   100.00 Ry     beta=0.30
     Davidson diagonalization with overlap
     ethr =  1.00E-02,  avg # of iterations =  2.3

     total cpu time spent up to now is       46.7 secs

     total energy              =    -138.94986530 Ry
     Harris-Foulkes estimate   =    -139.04185099 Ry
     estimated scf accuracy    <       0.52656765 Ry

     iteration #  2     ecut=   100.00 Ry     beta=0.30
     Davidson diagonalization with overlap
     ethr =  2.19E-03,  avg # of iterations =  3.4

     total cpu time spent up to now is       57.8 secs

     total energy              =    -139.16707973 Ry
     Harris-Foulkes estimate   =    -139.21614704 Ry
     estimated scf accuracy    <       0.52852567 Ry

     iteration #  3     ecut=   100.00 Ry     beta=0.30
     Davidson diagonalization with overlap
     ethr =  2.19E-03,  avg # of iterations =  1.4

     total cpu time spent up to now is       66.0 secs

     total energy              =    -138.93257457 Ry
     Harris-Foulkes estimate   =    -139.19847496 Ry
     estimated scf accuracy    <       0.48983518 Ry

     iteration #  4     ecut=   100.00 Ry     beta=0.30
     Davidson diagonalization with overlap
     ethr =  2.04E-03,  avg # of iterations =  2.5

     total cpu time spent up to now is       77.1 secs

     total energy              =    -139.03303640 Ry
     Harris-Foulkes estimate   =    -139.05289624 Ry
     estimated scf accuracy    <       0.04652802 Ry

     iteration #  5     ecut=   100.00 Ry     beta=0.30
     Davidson diagonalization with overlap
     ethr =  1.94E-04,  avg # of iterations =  2.6

     total cpu time spent up to now is       87.2 secs

     total energy              =    -139.04848140 Ry
     Harris-Foulkes estimate   =    -139.05377528 Ry
     estimated scf accuracy    <       0.01521435 Ry

     iteration #  6     ecut=   100.00 Ry     beta=0.30
     Davidson diagonalization with overlap
     ethr =  6.34E-05,  avg # of iterations =  2.9

     total cpu time spent up to now is       96.8 secs

     total energy              =    -139.05410698 Ry
     Harris-Foulkes estimate   =    -139.05502653 Ry
     estimated scf accuracy    <       0.00495159 Ry

     iteration #  7     ecut=   100.00 Ry     beta=0.30
     Davidson diagonalization with overlap
     ethr =  2.06E-05,  avg # of iterations =  2.0

     total cpu time spent up to now is      105.0 secs

     total energy              =    -139.05276980 Ry
     Harris-Foulkes estimate   =    -139.05440544 Ry
     estimated scf accuracy    <       0.00330165 Ry

     iteration #  8     ecut=   100.00 Ry     beta=0.30
     Davidson diagonalization with overlap
     ethr =  1.38E-05,  avg # of iterations =  3.5

     total cpu time spent up to now is      115.8 secs

     total energy              =    -139.05378810 Ry
     Harris-Foulkes estimate   =    -139.05482205 Ry
     estimated scf accuracy    <       0.00301019 Ry

     iteration #  9     ecut=   100.00 Ry     beta=0.30
     Davidson diagonalization with overlap
     ethr =  1.25E-05,  avg # of iterations =  2.8

     total cpu time spent up to now is      124.9 secs

     total energy              =    -139.05432975 Ry
     Harris-Foulkes estimate   =    -139.05434863 Ry
     estimated scf accuracy    <       0.00006492 Ry

     iteration # 10     ecut=   100.00 Ry     beta=0.30
     Davidson diagonalization with overlap
     ethr =  2.71E-07,  avg # of iterations =  5.3

     total cpu time spent up to now is      136.3 secs

     total energy              =    -139.05436204 Ry
     Harris-Foulkes estimate   =    -139.05436828 Ry
     estimated scf accuracy    <       0.00001823 Ry

     iteration # 11     ecut=   100.00 Ry     beta=0.30
     Davidson diagonalization with overlap
     ethr =  7.60E-08,  avg # of iterations =  2.8

     total cpu time spent up to now is      145.9 secs

     End of self-consistent calculation

          k = 0.0833 0.1443 0.0626 (  3927 PWs)   bands (ev):

   -29.3065 -11.9448 -10.7842 -10.3875 -10.3814  -4.8109   1.6824   5.3356
     6.0939   6.7102   9.7753  11.2718

          k = 0.0833 0.1443 0.1877 (  3931 PWs)   bands (ev):

   -29.3037 -12.2622 -10.5966 -10.3789 -10.1716  -4.8068   1.2689   5.3442
     6.0915   6.5933  10.9252  11.2793

          k = 0.0833 0.1443 0.3128 (  3917 PWs)   bands (ev):

   -29.3009 -12.4859 -10.5501 -10.3762  -9.9047  -4.8034   0.8988   5.3499
     6.0895   6.4778  11.2853  11.8914

          k = 0.0833 0.3368 0.0626 (  3923 PWs)   bands (ev):

   -29.2216 -11.7017 -10.7547 -10.5165 -10.1887  -6.2830   2.0591   4.5550
     5.7297   6.7941  11.2887  11.3788

          k = 0.0833 0.3368 0.1877 (  3919 PWs)   bands (ev):

   -29.2195 -11.7296 -10.9121 -10.5085  -9.9998  -6.2883   1.9193   4.5578
     5.5550   6.7891  11.4212  12.3060

          k = 0.0833 0.3368 0.3128 (  3914 PWs)   bands (ev):

   -29.2175 -11.7531 -11.0089 -10.5019  -9.8880  -6.2723   1.7832   4.5554
     5.3814   6.7971  11.4938  13.1490

          k = 0.0833 0.5292 0.0626 (  3919 PWs)   bands (ev):

   -29.1582 -11.7369 -10.6366 -10.6126  -9.4840  -7.7022   2.5785   4.0813
     4.7383   6.9209  11.9974  12.6306

          k = 0.0833 0.5292 0.1877 (  3926 PWs)   bands (ev):

   -29.1568 -11.5974 -10.7154 -10.6023  -9.6665  -7.6513   2.7145   4.0716
     4.4801   6.9920  11.9894  13.5303

          k = 0.0833 0.5292 0.3128 (  3917 PWs)   bands (ev):

   -29.1553 -11.4073 -10.8078 -10.5939  -9.8945  -7.5848   2.8400   4.0788
     4.2287   7.0793  11.9568  13.9193

          k = 0.0833-0.4330 0.0626 (  3917 PWs)   bands (ev):

   -29.1815 -11.6915 -10.6918 -10.5768  -9.8818  -7.0657   2.3323   4.2575
     5.1291   6.9239  11.6562  12.0655

          k = 0.0833-0.4330 0.1877 (  3915 PWs)   bands (ev):

   -29.1798 -11.5544 -10.8855 -10.5666  -9.8926  -7.0380   2.3332   4.2696
     4.8978   6.9819  11.6637  12.7287

          k = 0.0833-0.4330 0.3128 (  3914 PWs)   bands (ev):

   -29.1782 -11.3378 -11.1390 -10.5591  -9.9057  -7.0315   2.3399   4.2636
     4.7228   7.0157  11.7231  13.5944

          k = 0.0833-0.2406 0.0626 (  3935 PWs)   bands (ev):

   -29.2673 -11.7901 -10.7942 -10.4438 -10.3592  -5.4681   1.8239   4.9533
     6.2691   6.5160  10.4391  11.1818

          k = 0.0833-0.2406 0.1877 (  3920 PWs)   bands (ev):

   -29.2649 -11.9999 -10.7912 -10.4388 -10.1081  -5.4582   1.5304   4.9596
     6.1153   6.5010  11.2294  11.4822

          k = 0.0833-0.2406 0.3128 (  3930 PWs)   bands (ev):

   -29.2624 -12.1706 -10.7784 -10.4345  -9.9003  -5.4569   1.2715   4.9539
     5.9764   6.4790  11.3118  12.4818

          k = 0.0833-0.0481 0.0626 (  3953 PWs)   bands (ev):

   -29.3290 -12.0448 -10.7871 -10.3609 -10.3483  -4.4288   1.6159   5.5654
     5.8178   6.9353   9.4089  11.3991

          k = 0.0833-0.0481 0.1877 (  3924 PWs)   bands (ev):

   -29.3260 -12.4038 -10.4571 -10.3463 -10.2231  -4.4290   1.1314   5.5796
     5.8352   6.8475  10.6134  11.3396

          k = 0.0833-0.0481 0.3128 (  3900 PWs)   bands (ev):

   -29.3229 -12.6492 -10.4099 -10.3443  -9.9108  -4.4293   0.7000   5.5985
     5.8498   6.7550  11.2984  11.5311

          k = 0.2500 0.4330 0.0626 (  3913 PWs)   bands (ev):

   -29.1584 -11.5559 -10.8465 -10.6361  -9.5530  -7.5439   2.6546   3.4239
     4.6260   8.4050  10.8672  12.8549

          k = 0.2500 0.4330 0.1877 (  3920 PWs)   bands (ev):

   -29.1569 -11.4345 -10.8209 -10.7352  -9.6327  -7.5916   2.6670   3.5394
     4.5223   8.3610  10.9049  13.4666

          k = 0.2500 0.4330 0.3128 (  3907 PWs)   bands (ev):

   -29.1554 -11.2503 -10.9170 -10.7687  -9.7181  -7.6402   2.7097   3.6197
     4.4267   8.3134  10.9451  14.0922

          k = 0.2500 0.6255 0.0626 (  3906 PWs)   bands (ev):

   -29.1413 -11.4742 -10.9999 -10.6028  -9.1325  -8.0972   3.0105   3.1615
     4.1134   8.9325  10.7029  13.3216

          k = 0.2500 0.6255 0.1877 (  3912 PWs)   bands (ev):

   -29.1400 -11.3612 -10.9528 -10.6469  -9.2886  -8.1648   3.0677   3.2988
     4.0456   8.9069  10.6878  13.8630

          k = 0.2500 0.6255 0.3128 (  3912 PWs)   bands (ev):

   -29.1387 -11.2271 -10.9005 -10.6994  -9.4556  -8.2385   3.1595   3.4011
     3.9838   8.8735  10.6722  14.3085

          k = 0.2500-0.3368 0.0626 (  3914 PWs)   bands (ev):

   -29.1878 -11.6356 -10.6977 -10.6595  -9.9326  -6.9011   2.3088   3.9319
     5.2155   7.5948  11.1081  12.0963

          k = 0.2500-0.3368 0.1877 (  3928 PWs)   bands (ev):

   -29.1861 -11.5519 -10.8721 -10.6430  -9.8741  -6.9217   2.2563   3.9944
     5.0650   7.5572  11.1923  12.9033

          k = 0.2500-0.3368 0.3128 (  3919 PWs)   bands (ev):

   -29.1843 -11.4117 -11.0778 -10.6256  -9.8500  -6.9311   2.2192   4.0364
     4.9174   7.5299  11.2616  13.6878

          k = 0.2500-0.1443 0.0626 (  3925 PWs)   bands (ev):

   -29.2506 -11.7608 -10.7820 -10.4454 -10.3218  -5.7749   1.9053   4.9753
     6.0849   6.3897  10.7694  11.3525

          k = 0.2500-0.1443 0.1877 (  3928 PWs)   bands (ev):

   -29.2483 -11.9080 -10.8538 -10.4424 -10.0669  -5.7766   1.6776   4.9471
     5.9225   6.3999  11.4310  11.8214

          k = 0.2500-0.1443 0.3128 (  3925 PWs)   bands (ev):

   -29.2460 -12.0291 -10.8807 -10.4394  -9.8944  -5.7568   1.4562   4.9248
     5.7589   6.4149  11.5071  12.6873

          k = 0.4167 0.7217 0.0626 (  3910 PWs)   bands (ev):

   -29.1475 -11.6283 -10.7957 -10.6126  -9.2744  -7.9510   2.8051   3.4930
     4.4047   7.9450  11.4193  12.9971

          k = 0.4167 0.7217 0.1877 (  3917 PWs)   bands (ev):

   -29.1461 -11.4979 -10.7735 -10.6588  -9.4757  -7.9430   2.9346   3.5629
     4.2296   7.9582  11.3994  13.6690

          k = 0.4167 0.7217 0.3128 (  3925 PWs)   bands (ev):

   -29.1448 -11.3385 -10.7456 -10.7098  -9.7037  -7.9370   3.0615   3.6550
     4.0443   7.9771  11.3705  14.1511

          k = 0.4167-0.2406 0.0626 (  3928 PWs)   bands (ev):

   -29.1707 -11.7582 -10.6600 -10.5406  -9.6962  -7.3916   2.4233   4.5059
     4.9907   6.4139  12.1258  12.3638

          k = 0.4167-0.2406 0.1877 (  3928 PWs)   bands (ev):

   -29.1691 -11.6250 -10.7891 -10.5365  -9.7861  -7.3523   2.5078   4.4523
     4.7130   6.5288  12.1552  13.3854

          k = 0.4167-0.2406 0.3128 (  3911 PWs)   bands (ev):

   -29.1675 -11.4118 -10.9705 -10.5325  -9.9275  -7.2804   2.5718   4.4015
     4.4702   6.6552  12.1361  13.6943

          k =-0.0833-0.3368 0.0626 (  3923 PWs)   bands (ev):

   -29.2216 -11.6856 -10.7691 -10.5157 -10.2028  -6.2637   2.0481   4.5626
     5.7084   6.8141  11.2061  11.3862

          k =-0.0833-0.3368 0.1877 (  3919 PWs)   bands (ev):

   -29.2195 -11.6952 -10.9446 -10.5078 -10.0257  -6.2494   1.8988   4.5714
     5.5164   6.8281  11.3592  12.1313

          k =-0.0833-0.3368 0.3128 (  3914 PWs)   bands (ev):

   -29.2175 -11.7358 -11.0257 -10.5016  -9.9005  -6.2527   1.7735   4.5615
     5.3637   6.8161  11.4668  13.1055

          k =-0.0833-0.5292 0.0626 (  3919 PWs)   bands (ev):

   -29.1582 -11.7316 -10.6410 -10.6090  -9.5029  -7.6848   2.5744   4.0885
     4.7256   6.9293  11.9820  12.5380

          k =-0.0833-0.5292 0.1877 (  3926 PWs)   bands (ev):

   -29.1568 -11.5827 -10.7240 -10.5997  -9.6997  -7.6209   2.7086   4.0891
     4.4497   7.0103  11.9484  13.1988

          k =-0.0833-0.5292 0.3128 (  3917 PWs)   bands (ev):

   -29.1553 -11.3949 -10.8172 -10.5927  -9.9093  -7.5714   2.8387   4.0988
     4.2008   7.0892  11.9336  13.8609

          k =-0.0833 0.4330 0.0626 (  3917 PWs)   bands (ev):

   -29.1815 -11.7060 -10.6837 -10.5789  -9.8538  -7.0926   2.3423   4.2469
     5.1536   6.9033  11.6952  12.1807

          k =-0.0833 0.4330 0.1877 (  3915 PWs)   bands (ev):

   -29.1798 -11.5966 -10.8521 -10.5686  -9.8447  -7.0896   2.3501   4.2493
     4.9469   6.9385  11.7494  13.1385

          k =-0.0833 0.4330 0.3128 (  3914 PWs)   bands (ev):

   -29.1782 -11.3974 -11.0819 -10.5599  -9.8848  -7.0562   2.3469   4.2534
     4.7480   6.9931  11.7677  13.6589

          k =-0.0833 0.2406 0.0626 (  3935 PWs)   bands (ev):

   -29.2673 -11.7971 -10.7852 -10.4440 -10.3570  -5.4763   1.8303   4.9491
     6.2772   6.5104  10.4561  11.1775

          k =-0.0833 0.2406 0.1877 (  3920 PWs)   bands (ev):

   -29.2649 -12.0093 -10.7815 -10.4388 -10.1001  -5.4752   1.5427   4.9518
     6.1303   6.4893  11.2419  11.5203

          k =-0.0833 0.2406 0.3128 (  3930 PWs)   bands (ev):

   -29.2624 -12.1742 -10.7750 -10.4346  -9.8958  -5.4656   1.2776   4.9502
     5.9831   6.4736  11.3123  12.5076

          k =-0.0833 0.0481 0.0626 (  3953 PWs)   bands (ev):

   -29.3290 -12.0440 -10.7883 -10.3609 -10.3483  -4.4275   1.6145   5.5698
     5.8154   6.9328   9.4082  11.4206

          k =-0.0833 0.0481 0.1877 (  3924 PWs)   bands (ev):

   -29.3260 -12.4030 -10.4579 -10.3463 -10.2241  -4.4261   1.1286   5.5887
     5.8296   6.8439  10.6103  11.3814

          k =-0.0833 0.0481 0.3128 (  3900 PWs)   bands (ev):

   -29.3229 -12.6489 -10.4100 -10.3443  -9.9115  -4.4278   0.6986   5.6031
     5.8467   6.7536  11.3202  11.5063

          k =-0.2500-0.6255 0.0626 (  3906 PWs)   bands (ev):

   -29.1413 -11.4760 -10.9984 -10.6031  -9.1279  -8.1017   3.0309   3.1380
     4.1179   8.9285  10.7084  13.3947

          k =-0.2500-0.6255 0.1877 (  3912 PWs)   bands (ev):

   -29.1400 -11.3660 -10.9482 -10.6480  -9.2798  -8.1732   3.0897   3.2694
     4.0558   8.8983  10.6999  14.0879

          k =-0.2500-0.6255 0.3128 (  3912 PWs)   bands (ev):

   -29.1387 -11.2308 -10.8960 -10.7009  -9.4514  -8.2424   3.1681   3.3876
     3.9900   8.8689  10.6787  14.3220

          k =-0.2500 0.3368 0.0626 (  3914 PWs)   bands (ev):

   -29.1878 -11.6279 -10.7129 -10.6493  -9.9427  -6.8903   2.3031   3.9389
     5.2038   7.6068  11.0876  12.0504

          k =-0.2500 0.3368 0.1877 (  3928 PWs)   bands (ev):

   -29.1861 -11.5305 -10.8948 -10.6386  -9.8918  -6.9005   2.2468   4.0067
     5.0424   7.5812  11.1519  12.7455

          k =-0.2500 0.3368 0.3128 (  3919 PWs)   bands (ev):

   -29.1843 -11.3890 -11.1009 -10.6243  -9.8582  -6.9207   2.2152   4.0419
     4.9064   7.5419  11.2416  13.6523

          k =-0.2500 0.1443 0.0626 (  3925 PWs)   bands (ev):

   -29.2506 -11.7439 -10.8002 -10.4455 -10.3306  -5.7556   1.8922   4.9813
     6.0699   6.4024  10.7229  11.3554

          k =-0.2500 0.1443 0.1877 (  3928 PWs)   bands (ev):

   -29.2483 -11.8817 -10.8793 -10.4425 -10.0885  -5.7370   1.6520   4.9589
     5.8904   6.4303  11.3875  11.7101

          k =-0.2500 0.1443 0.3128 (  3925 PWs)   bands (ev):

   -29.2460 -12.0184 -10.8906 -10.4394  -9.9057  -5.7366   1.4436   4.9306
     5.7437   6.4301  11.4976  12.6341

          k =-0.4167 0.2406 0.0626 (  3928 PWs)   bands (ev):

   -29.1707 -11.7467 -10.6615 -10.5406  -9.7289  -7.3622   2.4163   4.5081
     4.9739   6.4302  12.1032  12.2191

          k =-0.4167 0.2406 0.1877 (  3928 PWs)   bands (ev):

   -29.1691 -11.5921 -10.8066 -10.5366  -9.8426  -7.2981   2.4972   4.4566
     4.6772   6.5649  12.0703  12.8893

          k =-0.4167 0.2406 0.3128 (  3911 PWs)   bands (ev):

   -29.1675 -11.3767 -11.0001 -10.5326  -9.9515  -7.2555   2.5684   4.4037
     4.4510   6.6746  12.0898  13.6639

!    total energy              =    -139.05436489 Ry
     Harris-Foulkes estimate   =    -139.05436488 Ry
     estimated scf accuracy    <       0.00000049 Ry

     The total energy is the sum of the following terms:

     one-electron contribution =     -26.00484305 Ry
     hartree contribution      =      27.36434796 Ry
     xc contribution           =     -26.16570877 Ry
     ewald contribution        =    -114.24816104 Ry

     convergence has been achieved in  11 iterations

     Forces acting on atoms (Ry/au):

     atom    1 type  3   force =     0.00000000    0.00000000    0.00149915
     atom    2 type  2   force =     0.00000000   -0.00000000   -0.19004282
     atom    3 type  2   force =     0.00000000    0.00000000    0.17721185
     atom    4 type  1   force =     0.00000000    0.00000000    0.05072111
     atom    5 type  1   force =     0.00000000    0.00000000   -0.03938929

     Total force =     0.267669     Total SCF correction =     0.000970


     entering subroutine stress ...

          total   stress  (Ry/bohr**3)                   (kbar)     P=  943.94
   0.00867294  -0.00000000   0.00000000       1275.83     -0.00      0.00
  -0.00000000   0.00867294   0.00000000         -0.00   1275.83      0.00
   0.00000000  -0.00000000   0.00190454          0.00     -0.00    280.17


     BFGS Geometry Optimization

     number of scf cycles    =   1
     number of bfgs steps    =   0

     enthalpy new            =    -136.6874024336 Ry

     new trust radius        =       0.5000000000 bohr
     new conv_thr            =       0.0000010000 Ry

     new unit-cell volume =    182.51301 a.u.^3 (    27.04564 Ang^3 )

CELL_PARAMETERS (alat=  5.86000000)
   0.969845859  -0.000000000   0.000000000
  -0.484922930   0.839911152  -0.000000000
   0.000000000   0.000000000   1.113435116

ATOMIC_POSITIONS (crystal)
Ca       0.000000000   0.000000000   0.000152022
O        0.333333333   0.666666667   0.452728610
O        0.666666667   0.333333333   0.555970259
H        0.333333333   0.666666667   0.713143400
H        0.666666667   0.333333333   0.288005709



     Writing output data file CaOH2_ambient.save
     NEW-OLD atomic charge density approx. for the potential
     NEW k-points:
        k(    1) = (   0.0859243   0.1488253   0.0748435), wk =   0.0370370
        k(    2) = (   0.0859243   0.1488253   0.2245304), wk =   0.0370370
        k(    3) = (   0.0859243   0.1488253   0.3742173), wk =   0.0370370
        k(    4) = (   0.0859243   0.3472590   0.0748435), wk =   0.0370370
        k(    5) = (   0.0859243   0.3472590   0.2245304), wk =   0.0370370
        k(    6) = (   0.0859243   0.3472590   0.3742173), wk =   0.0370370
        k(    7) = (   0.0859243   0.5456926   0.0748435), wk =   0.0370370
        k(    8) = (   0.0859243   0.5456926   0.2245304), wk =   0.0370370
        k(    9) = (   0.0859243   0.5456926   0.3742173), wk =   0.0370370
        k(   10) = (   0.0859243  -0.4464758   0.0748435), wk =   0.0370370
        k(   11) = (   0.0859243  -0.4464758   0.2245304), wk =   0.0370370
        k(   12) = (   0.0859243  -0.4464758   0.3742173), wk =   0.0370370
        k(   13) = (   0.0859243  -0.2480421   0.0748435), wk =   0.0370370
        k(   14) = (   0.0859243  -0.2480421   0.2245304), wk =   0.0370370
        k(   15) = (   0.0859243  -0.2480421   0.3742173), wk =   0.0370370
        k(   16) = (   0.0859243  -0.0496084   0.0748435), wk =   0.0185185
        k(   17) = (   0.0859243  -0.0496084   0.2245304), wk =   0.0185185
        k(   18) = (   0.0859243  -0.0496084   0.3742173), wk =   0.0185185
        k(   19) = (   0.2577729   0.4464758   0.0748435), wk =   0.0370370
        k(   20) = (   0.2577729   0.4464758   0.2245304), wk =   0.0370370
        k(   21) = (   0.2577729   0.4464758   0.3742173), wk =   0.0370370
        k(   22) = (   0.2577729   0.6449095   0.0748435), wk =   0.0370370
        k(   23) = (   0.2577729   0.6449095   0.2245304), wk =   0.0370370
        k(   24) = (   0.2577729   0.6449095   0.3742173), wk =   0.0370370
        k(   25) = (   0.2577729  -0.3472590   0.0748435), wk =   0.0370370
        k(   26) = (   0.2577729  -0.3472590   0.2245304), wk =   0.0370370
        k(   27) = (   0.2577729  -0.3472590   0.3742173), wk =   0.0370370
        k(   28) = (   0.2577729  -0.1488253   0.0748435), wk =   0.0185185
        k(   29) = (   0.2577729  -0.1488253   0.2245304), wk =   0.0185185
        k(   30) = (   0.2577729  -0.1488253   0.3742173), wk =   0.0185185
        k(   31) = (   0.4296215   0.7441263   0.0748435), wk =   0.0370370
        k(   32) = (   0.4296215   0.7441263   0.2245304), wk =   0.0370370
        k(   33) = (   0.4296215   0.7441263   0.3742173), wk =   0.0370370
        k(   34) = (   0.4296215  -0.2480421   0.0748435), wk =   0.0185185
        k(   35) = (   0.4296215  -0.2480421   0.2245304), wk =   0.0185185
        k(   36) = (   0.4296215  -0.2480421   0.3742173), wk =   0.0185185
        k(   37) = (  -0.0859243  -0.3472590   0.0748435), wk =   0.0370370
        k(   38) = (  -0.0859243  -0.3472590   0.2245304), wk =   0.0370370
        k(   39) = (  -0.0859243  -0.3472590   0.3742173), wk =   0.0370370
        k(   40) = (  -0.0859243  -0.5456926   0.0748435), wk =   0.0370370
        k(   41) = (  -0.0859243  -0.5456926   0.2245304), wk =   0.0370370
        k(   42) = (  -0.0859243  -0.5456926   0.3742173), wk =   0.0370370
        k(   43) = (  -0.0859243   0.4464758   0.0748435), wk =   0.0370370
        k(   44) = (  -0.0859243   0.4464758   0.2245304), wk =   0.0370370
        k(   45) = (  -0.0859243   0.4464758   0.3742173), wk =   0.0370370
        k(   46) = (  -0.0859243   0.2480421   0.0748435), wk =   0.0370370
        k(   47) = (  -0.0859243   0.2480421   0.2245304), wk =   0.0370370
        k(   48) = (  -0.0859243   0.2480421   0.3742173), wk =   0.0370370
        k(   49) = (  -0.0859243   0.0496084   0.0748435), wk =   0.0185185
        k(   50) = (  -0.0859243   0.0496084   0.2245304), wk =   0.0185185
        k(   51) = (  -0.0859243   0.0496084   0.3742173), wk =   0.0185185
        k(   52) = (  -0.2577729  -0.6449095   0.0748435), wk =   0.0370370
        k(   53) = (  -0.2577729  -0.6449095   0.2245304), wk =   0.0370370
        k(   54) = (  -0.2577729  -0.6449095   0.3742173), wk =   0.0370370
        k(   55) = (  -0.2577729   0.3472590   0.0748435), wk =   0.0370370
        k(   56) = (  -0.2577729   0.3472590   0.2245304), wk =   0.0370370
        k(   57) = (  -0.2577729   0.3472590   0.3742173), wk =   0.0370370
        k(   58) = (  -0.2577729   0.1488253   0.0748435), wk =   0.0185185
        k(   59) = (  -0.2577729   0.1488253   0.2245304), wk =   0.0185185
        k(   60) = (  -0.2577729   0.1488253   0.3742173), wk =   0.0185185
        k(   61) = (  -0.4296215   0.2480421   0.0748435), wk =   0.0185185
        k(   62) = (  -0.4296215   0.2480421   0.2245304), wk =   0.0185185
        k(   63) = (  -0.4296215   0.2480421   0.3742173), wk =   0.0185185
     extrapolated charge   18.01944, renormalised to   24.00000

     total cpu time spent up to now is      226.8 secs

     per-process dynamical memory:    18.8 Mb

     Self-consistent Calculation

     iteration #  1     ecut=   100.00 Ry     beta=0.30
     Davidson diagonalization with overlap
     ethr =  1.00E-06,  avg # of iterations =  9.0

     total cpu time spent up to now is      253.1 secs

     total energy              =    -137.34718849 Ry
     Harris-Foulkes estimate   =    -142.96564011 Ry
     estimated scf accuracy    <       5.67647386 Ry

     iteration #  2     ecut=   100.00 Ry     beta=0.30
     Davidson diagonalization with overlap
     ethr =  1.00E-02,  avg # of iterations =  2.7

     total cpu time spent up to now is      265.0 secs

     total energy              =    -138.84607325 Ry
     Harris-Foulkes estimate   =    -138.96042115 Ry
     estimated scf accuracy    <       0.55235661 Ry

     iteration #  3     ecut=   100.00 Ry     beta=0.30
     Davidson diagonalization with overlap
     ethr =  2.30E-03,  avg # of iterations =  1.6

     total cpu time spent up to now is      273.2 secs

     total energy              =    -138.79926332 Ry
     Harris-Foulkes estimate   =    -138.87423211 Ry
     estimated scf accuracy    <       0.17949390 Ry

     iteration #  4     ecut=   100.00 Ry     beta=0.30
     Davidson diagonalization with overlap
     ethr =  7.48E-04,  avg # of iterations =  3.4

     total cpu time spent up to now is      282.8 secs

     total energy              =    -138.89070885 Ry
     Harris-Foulkes estimate   =    -138.87469089 Ry
     estimated scf accuracy    <       0.11588130 Ry

     iteration #  5     ecut=   100.00 Ry     beta=0.30
     Davidson diagonalization with overlap
     ethr =  4.83E-04,  avg # of iterations =  1.1

     total cpu time spent up to now is      290.7 secs

     total energy              =    -138.79768766 Ry
     Harris-Foulkes estimate   =    -138.89286205 Ry
     estimated scf accuracy    <       0.17837663 Ry

     iteration #  6     ecut=   100.00 Ry     beta=0.30
     Davidson diagonalization with overlap
     ethr =  4.83E-04,  avg # of iterations =  3.3

     total cpu time spent up to now is      302.0 secs

     total energy              =    -138.85744403 Ry
     Harris-Foulkes estimate   =    -138.86993607 Ry
     estimated scf accuracy    <       0.05569880 Ry

     iteration #  7     ecut=   100.00 Ry     beta=0.30
     Davidson diagonalization with overlap
     ethr =  2.32E-04,  avg # of iterations =  1.1

     total cpu time spent up to now is      310.0 secs

     total energy              =    -138.85217616 Ry
     Harris-Foulkes estimate   =    -138.85906778 Ry
     estimated scf accuracy    <       0.02273670 Ry

     iteration #  8     ecut=   100.00 Ry     beta=0.30
     Davidson diagonalization with overlap
     ethr =  9.47E-05,  avg # of iterations =  2.5

     total cpu time spent up to now is      318.9 secs

     total energy              =    -138.85312918 Ry
     Harris-Foulkes estimate   =    -138.85441782 Ry
     estimated scf accuracy    <       0.00253456 Ry

     iteration #  9     ecut=   100.00 Ry     beta=0.30
     Davidson diagonalization with overlap
     ethr =  1.06E-05,  avg # of iterations =  3.2

     total cpu time spent up to now is      329.6 secs

     total energy              =    -138.85383710 Ry
     Harris-Foulkes estimate   =    -138.85393988 Ry
     estimated scf accuracy    <       0.00047521 Ry

     iteration # 10     ecut=   100.00 Ry     beta=0.30
     Davidson diagonalization with overlap
     ethr =  1.98E-06,  avg # of iterations =  1.9

     total cpu time spent up to now is      337.8 secs

     total energy              =    -138.85384076 Ry
     Harris-Foulkes estimate   =    -138.85386788 Ry
     estimated scf accuracy    <       0.00011622 Ry

     iteration # 11     ecut=   100.00 Ry     beta=0.30
     Davidson diagonalization with overlap
     ethr =  4.84E-07,  avg # of iterations =  3.2

     total cpu time spent up to now is      346.9 secs

     total energy              =    -138.85385270 Ry
     Harris-Foulkes estimate   =    -138.85385576 Ry
     estimated scf accuracy    <       0.00001165 Ry

     iteration # 12     ecut=   100.00 Ry     beta=0.30
     Davidson diagonalization with overlap
     ethr =  4.85E-08,  avg # of iterations =  3.3

     total cpu time spent up to now is      357.2 secs

     total energy              =    -138.85385475 Ry
     Harris-Foulkes estimate   =    -138.85385488 Ry
     estimated scf accuracy    <       0.00000114 Ry

     iteration # 13     ecut=   100.00 Ry     beta=0.30
     Davidson diagonalization with overlap
     ethr =  4.76E-09,  avg # of iterations =  3.4

     total cpu time spent up to now is      367.4 secs

     total energy              =    -138.85385455 Ry
     Harris-Foulkes estimate   =    -138.85385509 Ry
     estimated scf accuracy    <       0.00000144 Ry

     iteration # 14     ecut=   100.00 Ry     beta=0.30
     Davidson diagonalization with overlap
     ethr =  4.76E-09,  avg # of iterations =  2.1

     total cpu time spent up to now is      375.6 secs

     End of self-consistent calculation

          k = 0.0859 0.1488 0.0748 (  3927 PWs)   bands (ev):

   -25.5266  -9.4766  -6.9634  -6.5551  -6.3941  -1.5568   5.2511   8.6336
     9.5333  10.0738  14.4068  15.0512

          k = 0.0859 0.1488 0.2245 (  3931 PWs)   bands (ev):

   -25.5019  -9.9593  -6.8635  -6.5350  -5.8597  -1.5140   4.4546   8.6754
     9.5202   9.7197  14.9057  15.6600

          k = 0.0859 0.1488 0.3742 (  3917 PWs)   bands (ev):

   -25.4770 -10.3382  -6.8031  -6.5147  -5.3717  -1.4736   3.7665   8.7031
     9.3351   9.5497  14.9263  15.4426

          k = 0.0859 0.3473 0.0748 (  3923 PWs)   bands (ev):

   -25.3828  -9.3735  -6.8923  -6.7885  -6.0941  -3.1660   5.4006   7.8854
     8.9799  10.4087  15.0036  16.2733

          k = 0.0859 0.3473 0.2245 (  3919 PWs)   bands (ev):

   -25.3639  -9.3741  -7.3036  -6.7419  -5.7597  -3.1876   5.1548   7.8754
     8.4334  10.3647  15.2976  17.1355

          k = 0.0859 0.3473 0.3742 (  3914 PWs)   bands (ev):

   -25.3448  -9.3919  -7.5021  -6.6971  -5.6843  -3.1283   4.8945   7.8297
     8.0357  10.3613  15.5248  17.0609

          k = 0.0859 0.5457 0.0748 (  3919 PWs)   bands (ev):

   -25.2742  -9.3631  -7.0020  -6.6462  -5.4671  -4.6677   5.6687   7.4062
     8.0187  10.4811  16.0316  16.9644

          k = 0.0859 0.5457 0.2245 (  3926 PWs)   bands (ev):

   -25.2597  -8.9940  -7.0918  -6.8574  -6.0038  -4.4724   5.9700   7.1511
     7.5384  10.6510  16.0548  17.9078

          k = 0.0859 0.5457 0.3742 (  3917 PWs)   bands (ev):

   -25.2452  -8.3415  -7.4839  -6.8652  -6.7211  -4.2514   6.1492   6.7586
     7.3674  10.8889  15.9979  17.9879

          k = 0.0859-0.4465 0.0748 (  3917 PWs)   bands (ev):

   -25.3143  -9.3444  -6.9587  -6.7419  -5.8731  -3.9200   5.4590   7.6200
     8.4431  10.5556  15.5166  16.6270

          k = 0.0859-0.4465 0.2245 (  3915 PWs)   bands (ev):

   -25.2982  -9.0630  -7.3731  -6.8214  -5.8854  -3.8710   5.4178   7.6018
     7.9191  10.6948  15.6121  17.3926

          k = 0.0859-0.4465 0.3742 (  3914 PWs)   bands (ev):

   -25.2820  -8.6892  -7.8080  -6.7779  -6.1017  -3.8214   5.4498   7.4195
     7.5608  10.7609  15.7549  17.5442

          k = 0.0859-0.2480 0.0748 (  3935 PWs)   bands (ev):

   -25.4605  -9.4084  -6.9810  -6.6597  -6.2770  -2.2838   5.2546   8.2913
     9.6202  10.0999  14.7582  15.2747

          k = 0.0859-0.2480 0.2245 (  3920 PWs)   bands (ev):

   -25.4384  -9.6811  -7.1527  -6.6295  -5.7970  -2.2382   4.6787   8.3130
     9.1720  10.0429  15.0126  16.1915

          k = 0.0859-0.2480 0.3742 (  3930 PWs)   bands (ev):

   -25.4162  -9.9428  -7.1591  -6.5992  -5.4861  -2.2124   4.2323   8.2715
     8.7505   9.9650  15.1922  16.1448

          k = 0.0859-0.0496 0.0748 (  3953 PWs)   bands (ev):

   -25.5643  -9.5225  -6.9338  -6.5003  -6.4537  -1.1097   5.2597   8.8245
     9.1499  10.3123  14.0442  15.1655

          k = 0.0859-0.0496 0.2245 (  3924 PWs)   bands (ev):

   -25.5381 -10.1086  -6.6370  -6.4844  -5.9491  -1.0757   4.3243   8.8889
     9.2362  10.0158  14.8676  15.3383

          k = 0.0859-0.0496 0.3742 (  3900 PWs)   bands (ev):

   -25.5116 -10.5393  -6.5790  -6.4687  -5.3262  -1.0450   3.5036   8.9843
     9.3047   9.7093  14.7413  15.0120

          k = 0.2578 0.4465 0.0748 (  3913 PWs)   bands (ev):

   -25.2748  -9.0995  -7.5531  -6.6495  -5.5696  -4.1908   5.7745   6.6626
     7.8039  12.2121  14.6659  17.7012

          k = 0.2578 0.4465 0.2245 (  3920 PWs)   bands (ev):

   -25.2602  -8.7985  -7.3779  -7.0345  -5.7819  -4.4144   5.7536   6.9912
     7.4658  12.0814  14.8110  18.1227

          k = 0.2578 0.4465 0.3742 (  3907 PWs)   bands (ev):

   -25.2456  -8.2925  -7.5941  -7.1389  -6.0520  -4.6744   5.8646   7.1487
     7.2096  11.9253  14.9339  18.1108

          k = 0.2578 0.6449 0.0748 (  3906 PWs)   bands (ev):

   -25.2455  -8.8979  -7.9168  -6.5772  -5.2456  -4.6027   6.0773   6.3645
     7.2660  12.7400  14.5868  17.8979

          k = 0.2578 0.6449 0.2245 (  3912 PWs)   bands (ev):

   -25.2321  -8.5472  -7.6902  -6.8080  -5.7402  -4.8979   6.1599   6.6893
     7.0608  12.6787  14.5848  18.4392

          k = 0.2578 0.6449 0.3742 (  3912 PWs)   bands (ev):

   -25.2187  -7.9632  -7.4187  -7.1214  -6.3539  -5.2584   6.3059   6.8146
     7.0251  12.5738  14.5572  18.3449

          k = 0.2578-0.3473 0.0748 (  3914 PWs)   bands (ev):

   -25.3252  -9.2752  -7.1257  -6.7690  -5.8624  -3.7029   5.5326   7.2135
     8.4346  11.3203  14.8597  16.9597

          k = 0.2578-0.3473 0.2245 (  3928 PWs)   bands (ev):

   -25.3086  -9.0979  -7.2425  -7.0135  -5.7725  -3.8036   5.4170   7.3940
     7.9603  11.1911  15.1153  17.6432

          k = 0.2578-0.3473 0.3742 (  3919 PWs)   bands (ev):

   -25.2919  -8.8709  -7.6256  -6.8989  -5.8554  -3.8740   5.3711   7.4561
     7.5958  11.0880  15.3152  17.6657

          k = 0.2578-0.1488 0.0748 (  3925 PWs)   bands (ev):

   -25.4322  -9.4108  -6.9502  -6.6458  -6.2407  -2.6492   5.3398   8.3181
     9.3573   9.9442  14.9092  15.7626

          k = 0.2578-0.1488 0.2245 (  3928 PWs)   bands (ev):

   -25.4113  -9.5841  -7.2336  -6.6228  -5.7666  -2.6435   4.9333   8.2121
     8.8445   9.9493  15.2017  16.7054

          k = 0.2578-0.1488 0.3742 (  3925 PWs)   bands (ev):

   -25.3902  -9.7603  -7.3110  -6.6004  -5.5479  -2.5598   4.5056   8.1425
     8.4491   9.9721  15.4482  16.5155

          k = 0.4296 0.7441 0.0748 (  3910 PWs)   bands (ev):

   -25.2559  -9.1668  -7.4635  -6.5991  -5.3032  -4.6831   5.8705   6.7235
     7.6396  11.6324  15.3925  17.3386

          k = 0.4296 0.7441 0.2245 (  3917 PWs)   bands (ev):

   -25.2422  -8.7895  -7.3426  -6.8371  -5.9322  -4.6830   6.1106   6.7818
     7.2963  11.6607  15.3799  18.1823

          k = 0.4296 0.7441 0.3742 (  3925 PWs)   bands (ev):

   -25.2283  -8.1491  -7.2404  -7.0394  -6.7865  -4.7224   6.3353   6.6748
     7.1653  11.7059  15.3240  18.2200

          k = 0.4296-0.2480 0.0748 (  3928 PWs)   bands (ev):

   -25.2955  -9.4196  -6.7871  -6.7155  -5.6960  -4.3994   5.5729   7.9140
     8.2480   9.9032  16.0760  16.9875

          k = 0.4296-0.2480 0.2245 (  3928 PWs)   bands (ev):

   -25.2802  -9.0978  -7.1903  -6.7580  -5.9256  -4.2559   5.8040   7.4982
     7.7099  10.1836  16.2326  17.7149

          k = 0.4296-0.2480 0.3742 (  3911 PWs)   bands (ev):

   -25.2648  -8.5447  -7.7177  -6.7288  -6.4371  -3.9702   5.8287   7.0427
     7.5265  10.5070  16.2255  17.7470

          k =-0.0859-0.3473 0.0748 (  3923 PWs)   bands (ev):

   -25.3828  -9.3570  -6.9448  -6.7689  -6.1112  -3.1129   5.3182   7.9229
     9.0341  10.4764  14.9917  16.0391

          k =-0.0859-0.3473 0.2245 (  3919 PWs)   bands (ev):

   -25.3639  -9.3375  -7.3717  -6.7371  -5.8005  -3.0808   5.0027   7.9299
     8.5401  10.4849  15.2312  16.8253

          k =-0.0859-0.3473 0.3742 (  3914 PWs)   bands (ev):

   -25.3448  -9.3727  -7.5355  -6.6960  -5.7037  -3.0760   4.8211   7.8483
     8.0924  10.4149  15.4836  16.9071

          k =-0.0859-0.5457 0.0748 (  3919 PWs)   bands (ev):

   -25.2742  -9.3554  -7.0102  -6.6474  -5.5292  -4.5963   5.6225   7.4326
     8.0398  10.5068  16.0187  16.8302

          k =-0.0859-0.5457 0.2245 (  3926 PWs)   bands (ev):

   -25.2597  -8.9669  -7.1571  -6.8409  -6.0390  -4.4016   5.8492   7.2469
     7.5615  10.7100  15.9786  17.7810

          k =-0.0859-0.5457 0.3742 (  3917 PWs)   bands (ev):

   -25.2452  -8.2821  -7.5938  -6.8247  -6.7271  -4.2290   6.0553   6.8403
     7.3770  10.9231  15.9475  17.9315

          k =-0.0859 0.4465 0.0748 (  3917 PWs)   bands (ev):

   -25.3143  -9.3623  -6.9284  -6.7437  -5.8221  -4.0001   5.5530   7.5754
     8.3892  10.4892  15.5561  16.9289

          k =-0.0859 0.4465 0.2245 (  3915 PWs)   bands (ev):

   -25.2981  -9.1186  -7.2648  -6.8367  -5.8212  -4.0076   5.6086   7.5261
     7.8052  10.5562  15.7609  17.6815

          k =-0.0859 0.4465 0.3742 (  3914 PWs)   bands (ev):

   -25.2819  -8.7515  -7.7155  -6.7831  -6.0885  -3.8762   5.5481   7.3624
     7.5234  10.6889  15.8470  17.6824

          k =-0.0859 0.2480 0.0748 (  3935 PWs)   bands (ev):

   -25.4605  -9.4155  -6.9614  -6.6621  -6.2760  -2.3055   5.2955   8.2673
     9.5886  10.0779  14.7212  15.3663

          k =-0.0859 0.2480 0.2245 (  3920 PWs)   bands (ev):

   -25.4384  -9.6923  -7.1308  -6.6299  -5.7830  -2.2857   4.7515   8.2699
     9.1224  10.0086  14.9593  16.4090

          k =-0.0859 0.2480 0.3742 (  3930 PWs)   bands (ev):

   -25.4162  -9.9473  -7.1507  -6.5991  -5.4767  -2.2384   4.2670   8.2509
     8.7284   9.9522  15.1704  16.2506

          k =-0.0859 0.0496 0.0748 (  3953 PWs)   bands (ev):

   -25.5643  -9.5215  -6.9370  -6.5007  -6.4524  -1.1062   5.2512   8.8521
     9.1316  10.3163  14.0377  15.2665

          k =-0.0859 0.0496 0.2245 (  3924 PWs)   bands (ev):

   -25.5381 -10.1075  -6.6389  -6.4851  -5.9506  -1.0672   4.3101   8.9479
     9.1885  10.0241  15.0793  15.0991

          k =-0.0859 0.0496 0.3742 (  3900 PWs)   bands (ev):

   -25.5116 -10.5389  -6.5792  -6.4691  -5.3279  -1.0396   3.4967   9.0159
     9.2746   9.7163  14.8483  14.8924

          k =-0.2578-0.6449 0.0748 (  3906 PWs)   bands (ev):

   -25.2455  -8.9008  -7.9133  -6.5775  -5.2336  -4.6162   6.1277   6.3152
     7.2648  12.7283  14.6017  17.9513

          k =-0.2578-0.6449 0.2245 (  3912 PWs)   bands (ev):

   -25.2321  -8.5575  -7.6755  -6.8100  -5.7261  -4.9163   6.2038   6.6505
     7.0555  12.6528  14.6172  18.4664

          k =-0.2578-0.6449 0.3742 (  3912 PWs)   bands (ev):

   -25.2187  -7.9845  -7.3612  -7.1549  -6.3509  -5.2649   6.3224   6.8088
     7.0145  12.5594  14.5752  18.3550

          k =-0.2578 0.3473 0.0748 (  3914 PWs)   bands (ev):

   -25.3252  -9.2664  -7.1427  -6.7660  -5.8787  -3.6729   5.4866   7.2411
     8.4555  11.3598  14.8174  16.8275

          k =-0.2578 0.3473 0.2245 (  3928 PWs)   bands (ev):

   -25.3086  -9.0732  -7.3153  -6.9799  -5.7984  -3.7474   5.3385   7.4225
     8.0119  11.2663  15.0257  17.5076

          k =-0.2578 0.3473 0.3742 (  3919 PWs)   bands (ev):

   -25.2919  -8.8509  -7.6601  -6.8928  -5.8653  -3.8482   5.3333   7.4508
     7.6387  11.1238  15.2691  17.6048

          k =-0.2578 0.1488 0.0748 (  3925 PWs)   bands (ev):

   -25.4322  -9.3940  -6.9889  -6.6465  -6.2469  -2.5975   5.2508   8.3581
     9.4312  10.0004  14.9789  15.5285

          k =-0.2578 0.1488 0.2245 (  3928 PWs)   bands (ev):

   -25.4113  -9.5543  -7.2872  -6.6243  -5.8027  -2.5337   4.7696   8.2902
     8.9588  10.0459  15.2981  16.2245

          k =-0.2578 0.1488 0.3742 (  3925 PWs)   bands (ev):

   -25.3902  -9.7475  -7.3339  -6.6011  -5.5690  -2.5021   4.4272   8.1806
     8.4999  10.0118  15.4869  16.2813

          k =-0.4296 0.2480 0.0748 (  3928 PWs)   bands (ev):

   -25.2956  -9.4043  -6.7875  -6.7356  -5.7760  -4.2976   5.4902   7.9295
     8.3173   9.9569  16.1171  16.6194

          k =-0.4296 0.2480 0.2245 (  3928 PWs)   bands (ev):

   -25.2803  -9.0457  -7.2835  -6.7586  -5.9907  -4.1177   5.6043   7.6621
     7.7389  10.3023  16.1242  17.4590

          k =-0.4296 0.2480 0.3742 (  3911 PWs)   bands (ev):

   -25.2648  -8.4484  -7.8527  -6.7292  -6.4310  -3.9225   5.7085   7.1429
     7.5401  10.5722  16.1394  17.6226

!    total energy              =    -138.85385460 Ry
     Harris-Foulkes estimate   =    -138.85385466 Ry
     estimated scf accuracy    <       0.00000009 Ry

     The total energy is the sum of the following terms:

     one-electron contribution =     -10.25978248 Ry
     hartree contribution      =      23.04404759 Ry
     xc contribution           =     -26.82696081 Ry
     ewald contribution        =    -124.81115889 Ry

     convergence has been achieved in  14 iterations

     Forces acting on atoms (Ry/au):

     atom    1 type  3   force =     0.00000000    0.00000000    0.00480713
     atom    2 type  2   force =    -0.00000000   -0.00000000   -0.39918539
     atom    3 type  2   force =     0.00000000    0.00000000    0.35946516
     atom    4 type  1   force =     0.00000000    0.00000000    0.12156707
     atom    5 type  1   force =     0.00000000    0.00000000   -0.08665397

     Total force =     0.557561     Total SCF correction =     0.000281


     entering subroutine stress ...

          total   stress  (Ry/bohr**3)                   (kbar)     P= 1840.65
   0.01606606  -0.00000000  -0.00000000       2363.40     -0.00     -0.00
  -0.00000000   0.01606606  -0.00000000         -0.00   2363.40     -0.00
  -0.00000000  -0.00000000   0.00540533         -0.00     -0.00    795.15


     number of scf cycles    =   2
     number of bfgs steps    =   1

     enthalpy old            =    -136.6874024336 Ry
     enthalpy new            =    -136.9928069535 Ry

     CASE: enthalpy_new < enthalpy_old

     new trust radius        =       0.7955795929 bohr
     new conv_thr            =       0.0000010000 Ry

     new unit-cell volume =    135.42332 a.u.^3 (    20.06767 Ang^3 )

CELL_PARAMETERS (alat=  5.86000000)
   0.994575200  -0.000000000  -0.000000000
  -0.497287600   0.861327389  -0.000000000
  -0.000000000   0.000000000   0.785587791

ATOMIC_POSITIONS (crystal)
Ca      -0.000000000  -0.000000000   0.000585646
O        0.333333333   0.666666667   0.409035624
O        0.666666667   0.333333333   0.596028272
H        0.333333333   0.666666667   0.725610903
H        0.666666667   0.333333333   0.278739555



     Writing output data file CaOH2_ambient.save
     NEW-OLD atomic charge density approx. for the potential
     NEW k-points:
        k(    1) = (   0.0837879   0.1451248   0.1060777), wk =   0.0370370
        k(    2) = (   0.0837879   0.1451248   0.3182331), wk =   0.0370370
        k(    3) = (   0.0837879   0.1451248   0.5303884), wk =   0.0370370
        k(    4) = (   0.0837879   0.3386246   0.1060777), wk =   0.0370370
        k(    5) = (   0.0837879   0.3386246   0.3182331), wk =   0.0370370
        k(    6) = (   0.0837879   0.3386246   0.5303884), wk =   0.0370370
        k(    7) = (   0.0837879   0.5321244   0.1060777), wk =   0.0370370
        k(    8) = (   0.0837879   0.5321244   0.3182331), wk =   0.0370370
        k(    9) = (   0.0837879   0.5321244   0.5303884), wk =   0.0370370
        k(   10) = (   0.0837879  -0.4353745   0.1060777), wk =   0.0370370
        k(   11) = (   0.0837879  -0.4353745   0.3182331), wk =   0.0370370
        k(   12) = (   0.0837879  -0.4353745   0.5303884), wk =   0.0370370
        k(   13) = (   0.0837879  -0.2418747   0.1060777), wk =   0.0370370
        k(   14) = (   0.0837879  -0.2418747   0.3182331), wk =   0.0370370
        k(   15) = (   0.0837879  -0.2418747   0.5303884), wk =   0.0370370
        k(   16) = (   0.0837879  -0.0483749   0.1060777), wk =   0.0185185
        k(   17) = (   0.0837879  -0.0483749   0.3182331), wk =   0.0185185
        k(   18) = (   0.0837879  -0.0483749   0.5303884), wk =   0.0185185
        k(   19) = (   0.2513636   0.4353745   0.1060777), wk =   0.0370370
        k(   20) = (   0.2513636   0.4353745   0.3182331), wk =   0.0370370
        k(   21) = (   0.2513636   0.4353745   0.5303884), wk =   0.0370370
        k(   22) = (   0.2513636   0.6288743   0.1060777), wk =   0.0370370
        k(   23) = (   0.2513636   0.6288743   0.3182331), wk =   0.0370370
        k(   24) = (   0.2513636   0.6288743   0.5303884), wk =   0.0370370
        k(   25) = (   0.2513636  -0.3386246   0.1060777), wk =   0.0370370
        k(   26) = (   0.2513636  -0.3386246   0.3182331), wk =   0.0370370
        k(   27) = (   0.2513636  -0.3386246   0.5303884), wk =   0.0370370
        k(   28) = (   0.2513636  -0.1451248   0.1060777), wk =   0.0185185
        k(   29) = (   0.2513636  -0.1451248   0.3182331), wk =   0.0185185
        k(   30) = (   0.2513636  -0.1451248   0.5303884), wk =   0.0185185
        k(   31) = (   0.4189393   0.7256242   0.1060777), wk =   0.0370370
        k(   32) = (   0.4189393   0.7256242   0.3182331), wk =   0.0370370
        k(   33) = (   0.4189393   0.7256242   0.5303884), wk =   0.0370370
        k(   34) = (   0.4189393  -0.2418747   0.1060777), wk =   0.0185185
        k(   35) = (   0.4189393  -0.2418747   0.3182331), wk =   0.0185185
        k(   36) = (   0.4189393  -0.2418747   0.5303884), wk =   0.0185185
        k(   37) = (  -0.0837879  -0.3386246   0.1060777), wk =   0.0370370
        k(   38) = (  -0.0837879  -0.3386246   0.3182331), wk =   0.0370370
        k(   39) = (  -0.0837879  -0.3386246   0.5303884), wk =   0.0370370
        k(   40) = (  -0.0837879  -0.5321244   0.1060777), wk =   0.0370370
        k(   41) = (  -0.0837879  -0.5321244   0.3182331), wk =   0.0370370
        k(   42) = (  -0.0837879  -0.5321244   0.5303884), wk =   0.0370370
        k(   43) = (  -0.0837879   0.4353745   0.1060777), wk =   0.0370370
        k(   44) = (  -0.0837879   0.4353745   0.3182331), wk =   0.0370370
        k(   45) = (  -0.0837879   0.4353745   0.5303884), wk =   0.0370370
        k(   46) = (  -0.0837879   0.2418747   0.1060777), wk =   0.0370370
        k(   47) = (  -0.0837879   0.2418747   0.3182331), wk =   0.0370370
        k(   48) = (  -0.0837879   0.2418747   0.5303884), wk =   0.0370370
        k(   49) = (  -0.0837879   0.0483749   0.1060777), wk =   0.0185185
        k(   50) = (  -0.0837879   0.0483749   0.3182331), wk =   0.0185185
        k(   51) = (  -0.0837879   0.0483749   0.5303884), wk =   0.0185185
        k(   52) = (  -0.2513636  -0.6288743   0.1060777), wk =   0.0370370
        k(   53) = (  -0.2513636  -0.6288743   0.3182331), wk =   0.0370370
        k(   54) = (  -0.2513636  -0.6288743   0.5303884), wk =   0.0370370
        k(   55) = (  -0.2513636   0.3386246   0.1060777), wk =   0.0370370
        k(   56) = (  -0.2513636   0.3386246   0.3182331), wk =   0.0370370
        k(   57) = (  -0.2513636   0.3386246   0.5303884), wk =   0.0370370
        k(   58) = (  -0.2513636   0.1451248   0.1060777), wk =   0.0185185
        k(   59) = (  -0.2513636   0.1451248   0.3182331), wk =   0.0185185
        k(   60) = (  -0.2513636   0.1451248   0.5303884), wk =   0.0185185
        k(   61) = (  -0.4189393   0.2418747   0.1060777), wk =   0.0185185
        k(   62) = (  -0.4189393   0.2418747   0.3182331), wk =   0.0185185
        k(   63) = (  -0.4189393   0.2418747   0.5303884), wk =   0.0185185

     negative rho (up, down):  0.114E-02 0.000E+00
     extrapolated charge   16.35012, renormalised to   24.00000

     total cpu time spent up to now is      456.6 secs

     per-process dynamical memory:    18.8 Mb

     Self-consistent Calculation

     iteration #  1     ecut=   100.00 Ry     beta=0.30
     Davidson diagonalization with overlap
     ethr =  1.00E-06,  avg # of iterations =  8.1

     negative rho (up, down):  0.336E-03 0.000E+00

     total cpu time spent up to now is      484.9 secs

     total energy              =    -137.33519268 Ry
     Harris-Foulkes estimate   =    -138.80275056 Ry
     estimated scf accuracy    <       4.68755834 Ry

     iteration #  2     ecut=   100.00 Ry     beta=0.30
     Davidson diagonalization with overlap
     ethr =  1.00E-02,  avg # of iterations =  2.1

     total cpu time spent up to now is      497.1 secs

     total energy              =    -138.77377804 Ry
     Harris-Foulkes estimate   =    -138.94178660 Ry
     estimated scf accuracy    <       0.69577378 Ry

     iteration #  3     ecut=   100.00 Ry     beta=0.30
     Davidson diagonalization with overlap
     ethr =  2.90E-03,  avg # of iterations =  1.0

     total cpu time spent up to now is      505.0 secs

     total energy              =    -138.56100404 Ry
     Harris-Foulkes estimate   =    -138.78587144 Ry
     estimated scf accuracy    <       0.36588943 Ry

     iteration #  4     ecut=   100.00 Ry     beta=0.30
     Davidson diagonalization with overlap
     ethr =  1.52E-03,  avg # of iterations =  2.0

     total cpu time spent up to now is      516.1 secs

     total energy              =    -138.61975362 Ry
     Harris-Foulkes estimate   =    -138.62091694 Ry
     estimated scf accuracy    <       0.00872953 Ry

     iteration #  5     ecut=   100.00 Ry     beta=0.30
     Davidson diagonalization with overlap
     ethr =  3.64E-05,  avg # of iterations =  1.8

     total cpu time spent up to now is      524.4 secs

     total energy              =    -138.61850466 Ry
     Harris-Foulkes estimate   =    -138.62014612 Ry
     estimated scf accuracy    <       0.00477237 Ry

     iteration #  6     ecut=   100.00 Ry     beta=0.30
     Davidson diagonalization with overlap
     ethr =  1.99E-05,  avg # of iterations =  2.1

     total cpu time spent up to now is      534.8 secs

     total energy              =    -138.61912843 Ry
     Harris-Foulkes estimate   =    -138.61931598 Ry
     estimated scf accuracy    <       0.00060829 Ry

     iteration #  7     ecut=   100.00 Ry     beta=0.30
     Davidson diagonalization with overlap
     ethr =  2.53E-06,  avg # of iterations =  2.0

     total cpu time spent up to now is      543.3 secs

     total energy              =    -138.61909283 Ry
     Harris-Foulkes estimate   =    -138.61916894 Ry
     estimated scf accuracy    <       0.00013676 Ry

     iteration #  8     ecut=   100.00 Ry     beta=0.30
     Davidson diagonalization with overlap
     ethr =  5.70E-07,  avg # of iterations =  2.2

     total cpu time spent up to now is      554.2 secs

     total energy              =    -138.61913191 Ry
     Harris-Foulkes estimate   =    -138.61913813 Ry
     estimated scf accuracy    <       0.00002502 Ry

     iteration #  9     ecut=   100.00 Ry     beta=0.30
     Davidson diagonalization with overlap
     ethr =  1.04E-07,  avg # of iterations =  1.2

     total cpu time spent up to now is      562.2 secs

     total energy              =    -138.61912670 Ry
     Harris-Foulkes estimate   =    -138.61913278 Ry
     estimated scf accuracy    <       0.00001043 Ry

     iteration # 10     ecut=   100.00 Ry     beta=0.30
     Davidson diagonalization with overlap
     ethr =  4.35E-08,  avg # of iterations =  2.3

     total cpu time spent up to now is      572.9 secs

     End of self-consistent calculation

          k = 0.0838 0.1451 0.1061 (  3927 PWs)   bands (ev):

   -19.9778  -5.6343  -1.0836  -0.5598   0.5353   0.6460  12.2359  12.6552
    13.4957  14.8427  19.8259  20.6526

          k = 0.0838 0.1451 0.3182 (  3931 PWs)   bands (ev):

   -19.5346  -5.9452  -1.2037  -0.7076   0.6345   1.0468   9.8107  13.0128
    13.2717  13.9055  18.9562  20.1433

          k = 0.0838 0.1451 0.5304 (  3917 PWs)   bands (ev):

   -19.0289  -6.7208  -0.9018  -0.2994   0.4470   1.5370   7.8738  11.6903
    13.5214  14.1184  18.5358  19.2711

          k = 0.0838 0.3386 0.1061 (  3923 PWs)   bands (ev):

   -19.7357  -6.3649  -2.1479  -0.4242   0.3984   1.3585  12.4455  13.0148
    14.3844  15.2698  19.1584  21.2109

          k = 0.0838 0.3386 0.3182 (  3919 PWs)   bands (ev):

   -19.3303  -5.8990  -1.9269  -1.2552   0.2979   1.0162  10.6218  12.2413
    12.9907  15.1529  19.6824  21.3405

          k = 0.0838 0.3386 0.5304 (  3914 PWs)   bands (ev):

   -18.8751  -5.7896  -2.0159  -0.6536  -0.3027   0.5272   9.3084  10.6250
    12.7360  15.0524  20.2071  21.0037

          k = 0.0838 0.5321 0.1061 (  3919 PWs)   bands (ev):

   -19.5471  -6.8060  -2.9660  -0.6386   0.6127   2.0607  12.5848  13.1017
    14.1917  15.5894  19.8809  21.5334

          k = 0.0838 0.5321 0.3182 (  3926 PWs)   bands (ev):

   -19.1732  -5.8590  -2.7187  -1.2221   0.0902   0.8394  11.2001  11.7945
    13.0399  15.9861  20.0069  21.8109

          k = 0.0838 0.5321 0.5304 (  3917 PWs)   bands (ev):

   -18.7584  -4.3441  -3.3096  -1.4927  -0.7703   0.1370   9.4358  10.9511
    12.3695  16.5903  19.9531  21.9619

          k = 0.0838-0.4354 0.1061 (  3917 PWs)   bands (ev):

   -19.6174  -6.6440  -2.6868  -0.5868   0.5802   1.7883  12.1673  13.3516
    14.4130  15.8000  19.4095  21.0695

          k = 0.0838-0.4354 0.3182 (  3915 PWs)   bands (ev):

   -19.2317  -5.8483  -2.5328  -1.2316   0.2207   0.9427  10.4339  12.4223
    13.2032  16.0709  19.6697  20.9341

          k = 0.0838-0.4354 0.5304 (  3914 PWs)   bands (ev):

   -18.8016  -5.0582  -2.7688  -0.9269  -0.7302   0.2753   9.2536  10.9074
    12.5946  16.0518  20.1344  21.2204

          k = 0.0838-0.2419 0.1061 (  3935 PWs)   bands (ev):

   -19.8676  -5.9943  -1.5628  -0.4155   0.4637   0.8552  12.1229  12.9724
    14.5589  14.7420  19.4312  20.6016

          k = 0.0838-0.2419 0.3182 (  3920 PWs)   bands (ev):

   -19.4413  -5.9097  -1.6089  -0.9870   0.6331   0.9565   9.8974  12.9924
    13.2813  14.5056  19.1900  20.3790

          k = 0.0838-0.2419 0.5304 (  3930 PWs)   bands (ev):

   -18.9583  -6.3354  -1.4815  -0.4329   0.1751   1.0637   8.4316  11.2227
    13.3112  14.3596  19.2976  20.1137

          k = 0.0838-0.0484 0.1061 (  3953 PWs)   bands (ev):

   -20.0400  -5.3958  -0.8805  -0.7501   0.4220   0.8885  12.3320  12.4028
    12.8467  14.8968  20.1189  20.6819

          k = 0.0838-0.0484 0.3182 (  3924 PWs)   bands (ev):

   -19.5875  -5.9662  -0.8742  -0.5660   0.3564   1.3297   9.7311  12.8686
    13.3057  13.7204  18.9540  19.7941

          k = 0.0838-0.0484 0.5304 (  3900 PWs)   bands (ev):

   -19.0690  -6.9158  -0.4991  -0.2332   0.5228   1.8273   7.5074  12.0484
    13.6493  14.1500  18.0817  18.5363

          k = 0.2514 0.4354 0.1061 (  3913 PWs)   bands (ev):

   -19.5493  -6.4023  -4.1871   0.4311   1.0634   1.5687  11.9952  12.9183
    13.9780  17.0326  18.6483  22.1643

          k = 0.2514 0.4354 0.3182 (  3920 PWs)   bands (ev):

   -19.1748  -5.5734  -3.3473  -1.4526   0.7497   0.8830  10.8595  11.8035
    13.2203  16.5104  19.0791  22.0856

          k = 0.2514 0.4354 0.5304 (  3907 PWs)   bands (ev):

   -18.7591  -4.5679  -2.4574  -1.8752  -0.8592  -0.2316  10.1146  10.3239
    13.4946  15.8529  19.4099  21.9294

          k = 0.2514 0.6289 0.1061 (  3906 PWs)   bands (ev):

   -19.4979  -6.2327  -4.8339   0.5151   1.2076   1.7909  11.8803  12.9662
    13.6459  17.4430  18.6350  22.5641

          k = 0.2514 0.6289 0.3182 (  3912 PWs)   bands (ev):

   -19.1322  -5.2999  -3.9821  -1.3342   0.7587   0.8550  11.1268  11.7179
    12.9890  17.1395  18.6298  22.4044

          k = 0.2514 0.6289 0.5304 (  3912 PWs)   bands (ev):

   -18.7275  -3.7830  -2.9932  -2.1682  -1.0738  -0.4593  10.0836  10.5862
    13.5999  16.6838  18.5356  22.1473

          k = 0.2514-0.3386 0.1061 (  3914 PWs)   bands (ev):

   -19.6368  -6.4633  -3.2316   0.1906   0.6487   1.4416  12.2104  12.9489
    14.3050  16.1607  18.8828  21.6217

          k = 0.2514-0.3386 0.3182 (  3928 PWs)   bands (ev):

   -19.2476  -5.7918  -2.4996  -1.5551   0.6048   0.9469  10.6764  11.9658
    13.2874  15.7105  19.5511  21.6735

          k = 0.2514-0.3386 0.5304 (  3919 PWs)   bands (ev):

   -18.8133  -5.2526  -2.2464  -1.2492  -0.5633   0.1494   9.7772  10.3647
    13.1571  15.2735  20.0776  21.5324

          k = 0.2514-0.1451 0.1061 (  3925 PWs)   bands (ev):

   -19.8197  -6.1674  -1.1450  -1.0609   0.3001   1.1944  12.5840  12.8972
    14.1831  14.9244  19.2675  21.0579

          k = 0.2514-0.1451 0.3182 (  3928 PWs)   bands (ev):

   -19.4009  -5.9269  -1.7523  -0.7737   0.1537   1.0345  10.4821  12.5536
    12.7464  14.8193  19.4798  21.0765

          k = 0.2514-0.1451 0.5304 (  3925 PWs)   bands (ev):

   -18.9280  -6.1563  -1.7133  -0.3767  -0.0279   0.8074   8.8936  10.9113
    12.6771  14.8414  19.9011  20.4721

          k = 0.4189 0.7256 0.1061 (  3910 PWs)   bands (ev):

   -19.5157  -6.5861  -4.0309   0.2188   0.7488   1.9947  12.2694  12.8407
    13.9406  16.5863  19.2573  22.1556

          k = 0.4189 0.7256 0.3182 (  3917 PWs)   bands (ev):

   -19.1471  -5.6204  -3.3768  -1.3274   0.5270   0.8336  11.0679  11.7742
    13.1160  16.5457  19.2821  22.1435

          k = 0.4189 0.7256 0.5304 (  3925 PWs)   bands (ev):

   -18.7388  -3.8471  -3.4636  -1.5657  -1.2089  -0.1104   9.6930  10.8336
    13.0178  16.6989  19.1686  22.0840

          k = 0.4189-0.2419 0.1061 (  3928 PWs)   bands (ev):

   -19.5843  -6.8132  -2.0457  -1.3950   0.5535   2.0010  12.6169  13.5275
    14.1555  15.0757  20.1052  21.1545

          k = 0.4189-0.2419 0.3182 (  3928 PWs)   bands (ev):

   -19.2042  -5.9342  -2.3970  -0.9800  -0.2805   0.8942  11.3921  11.7617
    12.8215  15.7064  20.3018  21.6609

          k = 0.4189-0.2419 0.5304 (  3911 PWs)   bands (ev):

   -18.7813  -4.7919  -2.9943  -1.3575  -0.5210   0.2417   9.4083  10.9053
    12.1067  16.3308  20.3630  21.8098

          k =-0.0838-0.3386 0.1061 (  3923 PWs)   bands (ev):

   -19.7358  -6.3575  -2.1686  -0.4786   0.4937   1.3343  12.0889  13.2315
    14.5935  15.4882  19.1732  20.7452

          k =-0.0838-0.3386 0.3182 (  3919 PWs)   bands (ev):

   -19.3305  -5.8731  -2.0867  -1.1877   0.3779   1.0289  10.1022  12.6836
    13.3073  15.3886  19.5310  20.5222

          k =-0.0838-0.3386 0.5304 (  3914 PWs)   bands (ev):

   -18.8752  -5.7724  -2.1156  -0.5933  -0.3072   0.5800   8.9726  10.9047
    12.9260  15.1117  20.0730  20.6303

          k =-0.0838-0.5321 0.1061 (  3919 PWs)   bands (ev):

   -19.5471  -6.8030  -2.9731  -0.6486   0.6309   2.0577  12.3555  13.2992
    14.2439  15.7032  19.8145  21.4129

          k =-0.0838-0.5321 0.3182 (  3926 PWs)   bands (ev):

   -19.1733  -5.8440  -2.7729  -1.2093   0.1363   0.8277  10.8087  12.1783
    13.0895  16.2186  19.8197  21.4803

          k =-0.0838-0.5321 0.5304 (  3917 PWs)   bands (ev):

   -18.7584  -4.2645  -3.4515  -1.3991  -0.7980   0.1402   9.3291  11.0401
    12.4024  16.7318  19.8209  21.7754

          k =-0.0838 0.4354 0.1061 (  3917 PWs)   bands (ev):

   -19.6174  -6.6514  -2.6687  -0.5553   0.5244   1.7987  12.6252  12.9994
    14.2621  15.5179  19.5226  21.4278

          k =-0.0838 0.4354 0.3182 (  3915 PWs)   bands (ev):

   -19.2315  -5.8801  -2.3931  -1.2781   0.1288   0.9514  11.2163  11.6829
    13.0178  15.6282  19.9832  21.7555

          k =-0.0838 0.4354 0.5304 (  3914 PWs)   bands (ev):

   -18.8015  -5.1013  -2.6027  -1.1423  -0.6405   0.2589   9.5885  10.6205
    12.4836  15.8532  20.2893  21.6892

          k =-0.0838 0.2419 0.1061 (  3935 PWs)   bands (ev):

   -19.8676  -5.9982  -1.5505  -0.3669   0.3585   0.9015  12.3029  12.8883
    14.2847  14.8167  19.2917  20.9375

          k =-0.0838 0.2419 0.3182 (  3920 PWs)   bands (ev):

   -19.4412  -5.9200  -1.5335  -1.0104   0.5962   0.9357  10.1297  12.8303
    12.9784  14.5407  19.2467  20.7413

          k =-0.0838 0.2419 0.5304 (  3930 PWs)   bands (ev):

   -18.9583  -6.3400  -1.4513  -0.4318   0.1923   1.0000   8.5665  11.1261
    13.1014  14.4429  19.5118  20.1236

          k =-0.0838 0.0484 0.1061 (  3953 PWs)   bands (ev):

   -20.0400  -5.3950  -0.8853  -0.7536   0.4352   0.8832  12.2401  12.4369
    12.9133  14.8993  20.3350  20.4339

          k =-0.0838 0.0484 0.3182 (  3924 PWs)   bands (ev):

   -19.5875  -5.9649  -0.8794  -0.5766   0.3661   1.3382   9.6865  13.0897
    13.1816  13.6961  18.9588  19.7276

          k =-0.0838 0.0484 0.5304 (  3900 PWs)   bands (ev):

   -19.0690  -6.9154  -0.4966  -0.2392   0.5134   1.8462   7.4859  12.0521
    13.9174  13.9214  17.9671  18.6075

          k =-0.2514-0.6289 0.1061 (  3906 PWs)   bands (ev):

   -19.4979  -6.2339  -4.8324   0.5190   1.2013   1.7927  11.9094  12.9290
    13.6490  17.4060  18.6714  22.5772

          k =-0.2514-0.6289 0.3182 (  3912 PWs)   bands (ev):

   -19.1322  -5.3059  -3.9726  -1.3360   0.7604   0.8501  11.3621  11.4593
    13.0101  17.0531  18.7129  22.4486

          k =-0.2514-0.6289 0.5304 (  3912 PWs)   bands (ev):

   -18.7275  -3.8158  -2.8978  -2.2457  -1.0550  -0.4640  10.1391  10.5308
    13.6030  16.6308  18.5864  22.1701

          k =-0.2514 0.3386 0.1061 (  3914 PWs)   bands (ev):

   -19.6368  -6.4595  -3.2389   0.1450   0.7153   1.4257  12.0417  13.0913
    14.3533  16.3100  18.7875  21.4799

          k =-0.2514 0.3386 0.3182 (  3928 PWs)   bands (ev):

   -19.2477  -5.7769  -2.5680  -1.5195   0.6285   0.9517  10.4006  12.2518
    13.3323  15.9153  19.3803  21.3462

          k =-0.2514 0.3386 0.5304 (  3919 PWs)   bands (ev):

   -18.8133  -5.2379  -2.3425  -1.1354  -0.6009   0.1633   9.5380  10.5870
    13.2080  15.3434  20.0044  21.3484

          k =-0.2514 0.1451 0.1061 (  3925 PWs)   bands (ev):

   -19.8198  -6.1591  -1.1536  -1.1324   0.4078   1.1625  12.1226  13.1345
    14.6672  14.9246  19.5684  20.2994

          k =-0.2514 0.1451 0.3182 (  3928 PWs)   bands (ev):

   -19.4011  -5.9019  -1.8810  -0.7933   0.2841   1.0601   9.9239  12.9569
    13.2930  14.9010  19.3846  20.1819

          k =-0.2514 0.1451 0.5304 (  3925 PWs)   bands (ev):

   -18.9281  -6.1436  -1.7878  -0.3880  -0.0239   0.9146   8.5725  11.1551
    12.9677  14.8328  19.5352  20.3126

          k =-0.4189 0.2419 0.1061 (  3928 PWs)   bands (ev):

   -19.5844  -6.8070  -2.0729  -1.3989   0.5874   1.9944  12.2869  13.6598
    14.3998  15.3102  20.1173  20.7373

          k =-0.4189 0.2419 0.3182 (  3928 PWs)   bands (ev):

   -19.2043  -5.9053  -2.5182  -0.9890  -0.1412   0.8743  10.6140  12.4346
    13.0547  16.1217  20.1165  20.7861

          k =-0.4189 0.2419 0.5304 (  3911 PWs)   bands (ev):

   -18.7814  -4.7244  -3.1682  -1.2346  -0.5264   0.2470   9.1714  11.0882
    12.2073  16.5603  20.2000  21.3492

!    total energy              =    -138.61912946 Ry
     Harris-Foulkes estimate   =    -138.61912980 Ry
     estimated scf accuracy    <       0.00000050 Ry

     The total energy is the sum of the following terms:

     one-electron contribution =      10.94329671 Ry
     hartree contribution      =      17.50694675 Ry
     xc contribution           =     -27.92501389 Ry
     ewald contribution        =    -139.14435903 Ry

     convergence has been achieved in  10 iterations

     Forces acting on atoms (Ry/au):

     atom    1 type  3   force =     0.00000000    0.00000000    0.00281666
     atom    2 type  2   force =    -0.00000000   -0.00000000   -0.72228641
     atom    3 type  2   force =     0.00000000    0.00000000    0.70926664
     atom    4 type  1   force =     0.00000000    0.00000000    0.52647765
     atom    5 type  1   force =    -0.00000000   -0.00000000   -0.51627455

     Total force =     1.252391     Total SCF correction =     0.000413


     entering subroutine stress ...

          total   stress  (Ry/bohr**3)                   (kbar)     P= 4111.20
   0.02874431   0.00000000   0.00000000       4228.43      0.00      0.00
   0.00000000   0.02874431   0.00000000          0.00   4228.43      0.00
   0.00000000   0.00000000   0.02635346          0.00      0.00   3876.73


     number of scf cycles    =   3
     number of bfgs steps    =   2

     enthalpy old            =    -136.9928069535 Ry
     enthalpy new            =    -137.2382457019 Ry

     CASE: enthalpy_new < enthalpy_old

     new trust radius        =       0.2023569727 bohr
     new conv_thr            =       0.0000010000 Ry

     new unit-cell volume =    157.04306 a.u.^3 (    23.27138 Ang^3 )

CELL_PARAMETERS (alat=  5.86000000)
   1.027298397   0.000000000   0.000000000
  -0.513649198   0.889666509  -0.000000000
   0.000000000   0.000000000   0.853890225

ATOMIC_POSITIONS (crystal)
Ca       0.000000000   0.000000000   0.000606324
O        0.333333333   0.666666667   0.378118391
O        0.666666667   0.333333333   0.627127947
H        0.333333333   0.666666667   0.746459975
H        0.666666667   0.333333333   0.257687363



     Writing output data file CaOH2_ambient.save
     NEW-OLD atomic charge density approx. for the potential
     NEW k-points:
        k(    1) = (   0.0811189   0.1405021   0.0975926), wk =   0.0370370
        k(    2) = (   0.0811189   0.1405021   0.2927777), wk =   0.0370370
        k(    3) = (   0.0811189   0.1405021   0.4879628), wk =   0.0370370
        k(    4) = (   0.0811189   0.3278382   0.0975926), wk =   0.0370370
        k(    5) = (   0.0811189   0.3278382   0.2927777), wk =   0.0370370
        k(    6) = (   0.0811189   0.3278382   0.4879628), wk =   0.0370370
        k(    7) = (   0.0811189   0.5151743   0.0975926), wk =   0.0370370
        k(    8) = (   0.0811189   0.5151743   0.2927777), wk =   0.0370370
        k(    9) = (   0.0811189   0.5151743   0.4879628), wk =   0.0370370
        k(   10) = (   0.0811189  -0.4215063   0.0975926), wk =   0.0370370
        k(   11) = (   0.0811189  -0.4215063   0.2927777), wk =   0.0370370
        k(   12) = (   0.0811189  -0.4215063   0.4879628), wk =   0.0370370
        k(   13) = (   0.0811189  -0.2341701   0.0975926), wk =   0.0370370
        k(   14) = (   0.0811189  -0.2341701   0.2927777), wk =   0.0370370
        k(   15) = (   0.0811189  -0.2341701   0.4879628), wk =   0.0370370
        k(   16) = (   0.0811189  -0.0468340   0.0975926), wk =   0.0185185
        k(   17) = (   0.0811189  -0.0468340   0.2927777), wk =   0.0185185
        k(   18) = (   0.0811189  -0.0468340   0.4879628), wk =   0.0185185
        k(   19) = (   0.2433568   0.4215063   0.0975926), wk =   0.0370370
        k(   20) = (   0.2433568   0.4215063   0.2927777), wk =   0.0370370
        k(   21) = (   0.2433568   0.4215063   0.4879628), wk =   0.0370370
        k(   22) = (   0.2433568   0.6088424   0.0975926), wk =   0.0370370
        k(   23) = (   0.2433568   0.6088424   0.2927777), wk =   0.0370370
        k(   24) = (   0.2433568   0.6088424   0.4879628), wk =   0.0370370
        k(   25) = (   0.2433568  -0.3278382   0.0975926), wk =   0.0370370
        k(   26) = (   0.2433568  -0.3278382   0.2927777), wk =   0.0370370
        k(   27) = (   0.2433568  -0.3278382   0.4879628), wk =   0.0370370
        k(   28) = (   0.2433568  -0.1405021   0.0975926), wk =   0.0185185
        k(   29) = (   0.2433568  -0.1405021   0.2927777), wk =   0.0185185
        k(   30) = (   0.2433568  -0.1405021   0.4879628), wk =   0.0185185
        k(   31) = (   0.4055946   0.7025104   0.0975926), wk =   0.0370370
        k(   32) = (   0.4055946   0.7025104   0.2927777), wk =   0.0370370
        k(   33) = (   0.4055946   0.7025104   0.4879628), wk =   0.0370370
        k(   34) = (   0.4055946  -0.2341701   0.0975926), wk =   0.0185185
        k(   35) = (   0.4055946  -0.2341701   0.2927777), wk =   0.0185185
        k(   36) = (   0.4055946  -0.2341701   0.4879628), wk =   0.0185185
        k(   37) = (  -0.0811189  -0.3278382   0.0975926), wk =   0.0370370
        k(   38) = (  -0.0811189  -0.3278382   0.2927777), wk =   0.0370370
        k(   39) = (  -0.0811189  -0.3278382   0.4879628), wk =   0.0370370
        k(   40) = (  -0.0811189  -0.5151743   0.0975926), wk =   0.0370370
        k(   41) = (  -0.0811189  -0.5151743   0.2927777), wk =   0.0370370
        k(   42) = (  -0.0811189  -0.5151743   0.4879628), wk =   0.0370370
        k(   43) = (  -0.0811189   0.4215063   0.0975926), wk =   0.0370370
        k(   44) = (  -0.0811189   0.4215063   0.2927777), wk =   0.0370370
        k(   45) = (  -0.0811189   0.4215063   0.4879628), wk =   0.0370370
        k(   46) = (  -0.0811189   0.2341701   0.0975926), wk =   0.0370370
        k(   47) = (  -0.0811189   0.2341701   0.2927777), wk =   0.0370370
        k(   48) = (  -0.0811189   0.2341701   0.4879628), wk =   0.0370370
        k(   49) = (  -0.0811189   0.0468340   0.0975926), wk =   0.0185185
        k(   50) = (  -0.0811189   0.0468340   0.2927777), wk =   0.0185185
        k(   51) = (  -0.0811189   0.0468340   0.4879628), wk =   0.0185185
        k(   52) = (  -0.2433568  -0.6088424   0.0975926), wk =   0.0370370
        k(   53) = (  -0.2433568  -0.6088424   0.2927777), wk =   0.0370370
        k(   54) = (  -0.2433568  -0.6088424   0.4879628), wk =   0.0370370
        k(   55) = (  -0.2433568   0.3278382   0.0975926), wk =   0.0370370
        k(   56) = (  -0.2433568   0.3278382   0.2927777), wk =   0.0370370
        k(   57) = (  -0.2433568   0.3278382   0.4879628), wk =   0.0370370
        k(   58) = (  -0.2433568   0.1405021   0.0975926), wk =   0.0185185
        k(   59) = (  -0.2433568   0.1405021   0.2927777), wk =   0.0185185
        k(   60) = (  -0.2433568   0.1405021   0.4879628), wk =   0.0185185
        k(   61) = (  -0.4055946   0.2341701   0.0975926), wk =   0.0185185
        k(   62) = (  -0.4055946   0.2341701   0.2927777), wk =   0.0185185
        k(   63) = (  -0.4055946   0.2341701   0.4879628), wk =   0.0185185
     extrapolated charge   27.02868, renormalised to   24.00000

     total cpu time spent up to now is      654.2 secs

     per-process dynamical memory:    18.8 Mb

     Self-consistent Calculation

     iteration #  1     ecut=   100.00 Ry     beta=0.30
     Davidson diagonalization with overlap
     ethr =  1.00E-06,  avg # of iterations =  8.6

     total cpu time spent up to now is      680.1 secs

     total energy              =    -138.69590825 Ry
     Harris-Foulkes estimate   =    -139.05260524 Ry
     estimated scf accuracy    <       0.76930889 Ry

     iteration #  2     ecut=   100.00 Ry     beta=0.30
     Davidson diagonalization with overlap
     ethr =  3.21E-03,  avg # of iterations =  3.2

     total cpu time spent up to now is      693.2 secs

     total energy              =    -139.18584957 Ry
     Harris-Foulkes estimate   =    -139.20739236 Ry
     estimated scf accuracy    <       0.10996446 Ry

     iteration #  3     ecut=   100.00 Ry     beta=0.30
     Davidson diagonalization with overlap
     ethr =  4.58E-04,  avg # of iterations =  1.0

     total cpu time spent up to now is      701.1 secs

     total energy              =    -139.14474997 Ry
     Harris-Foulkes estimate   =    -139.18762593 Ry
     estimated scf accuracy    <       0.06388631 Ry

     iteration #  4     ecut=   100.00 Ry     beta=0.30
     Davidson diagonalization with overlap
     ethr =  2.66E-04,  avg # of iterations =  2.0

     total cpu time spent up to now is      711.6 secs

     total energy              =    -139.16138296 Ry
     Harris-Foulkes estimate   =    -139.16318691 Ry
     estimated scf accuracy    <       0.00778260 Ry

     iteration #  5     ecut=   100.00 Ry     beta=0.30
     Davidson diagonalization with overlap
     ethr =  3.24E-05,  avg # of iterations =  1.2

     total cpu time spent up to now is      719.6 secs

     total energy              =    -139.15999886 Ry
     Harris-Foulkes estimate   =    -139.16165629 Ry
     estimated scf accuracy    <       0.00341707 Ry

     iteration #  6     ecut=   100.00 Ry     beta=0.30
     Davidson diagonalization with overlap
     ethr =  1.42E-05,  avg # of iterations =  2.0

[...]
        k(   60) = (  -0.2234144   0.1289884   0.5307683), wk =   0.0185185
        k(   61) = (  -0.3723574   0.2149806   0.1061537), wk =   0.0185185
        k(   62) = (  -0.3723574   0.2149806   0.3184610), wk =   0.0185185
        k(   63) = (  -0.3723574   0.2149806   0.5307683), wk =   0.0185185

     Dense  grid:    16605 G-vectors     FFT dimensions: (  40,  40,  27)

     Largest allocated arrays     est. size (Mb)     dimensions
        Kohn-Sham Wavefunctions         0.53 Mb     (   2910,   12)
        NL pseudopotentials             0.40 Mb     (   2910,    9)
        Each V/rho on FFT grid          0.66 Mb     (  43200)
        Each G-vector array             0.13 Mb     (  16605)
        G-vector shells                 0.01 Mb     (    806)
     Largest temporary arrays     est. size (Mb)     dimensions
        Auxiliary wavefunctions         2.13 Mb     (   2910,   48)
        Each subspace H/S matrix        0.04 Mb     (  48,  48)
        Each <psi_i|beta_j> matrix      0.00 Mb     (      9,   12)
        Arrays for rho mixing          10.55 Mb     (  43200,  16)

     Initial potential from superposition of free atoms

     starting charge   21.99998, renormalised to   24.00000
     Starting wfc are   14 randomized atomic wfcs

     Writing output data file CaOH2_ambient.save

     total cpu time spent up to now is     2940.0 secs

     per-process dynamical memory:    14.5 Mb

     Self-consistent Calculation

     iteration #  1     ecut=   100.00 Ry     beta=0.30
     Davidson diagonalization with overlap
     ethr =  1.00E-06,  avg # of iterations =  5.7

     total cpu time spent up to now is     2960.1 secs

     total energy              =    -139.65911690 Ry
     Harris-Foulkes estimate   =    -139.74264047 Ry
     estimated scf accuracy    <       0.47460318 Ry

     iteration #  2     ecut=   100.00 Ry     beta=0.30
     Davidson diagonalization with overlap
     ethr =  1.98E-03,  avg # of iterations =  1.0

     total cpu time spent up to now is     2966.2 secs

     total energy              =    -139.46580844 Ry
     Harris-Foulkes estimate   =    -139.66308452 Ry
     estimated scf accuracy    <       0.30360614 Ry

     iteration #  3     ecut=   100.00 Ry     beta=0.30
     Davidson diagonalization with overlap
     ethr =  1.27E-03,  avg # of iterations =  2.0

     total cpu time spent up to now is     2974.8 secs

     total energy              =    -139.51605722 Ry
     Harris-Foulkes estimate   =    -139.52282758 Ry
     estimated scf accuracy    <       0.01895320 Ry

     iteration #  4     ecut=   100.00 Ry     beta=0.30
     Davidson diagonalization with overlap
     ethr =  7.90E-05,  avg # of iterations =  2.0

     total cpu time spent up to now is     2982.9 secs

     total energy              =    -139.51699041 Ry
     Harris-Foulkes estimate   =    -139.51942627 Ry
     estimated scf accuracy    <       0.00630984 Ry

     iteration #  5     ecut=   100.00 Ry     beta=0.30
     Davidson diagonalization with overlap
     ethr =  2.63E-05,  avg # of iterations =  1.7

     total cpu time spent up to now is     2989.3 secs

     total energy              =    -139.51620850 Ry
     Harris-Foulkes estimate   =    -139.51740422 Ry
     estimated scf accuracy    <       0.00223060 Ry

     iteration #  6     ecut=   100.00 Ry     beta=0.30
     Davidson diagonalization with overlap
     ethr =  9.29E-06,  avg # of iterations =  2.0

     total cpu time spent up to now is     2997.4 secs

     total energy              =    -139.51681466 Ry
     Harris-Foulkes estimate   =    -139.51688345 Ry
     estimated scf accuracy    <       0.00011339 Ry

     iteration #  7     ecut=   100.00 Ry     beta=0.30
     Davidson diagonalization with overlap
     ethr =  4.72E-07,  avg # of iterations =  2.0

     total cpu time spent up to now is     3006.3 secs

     total energy              =    -139.51684951 Ry
     Harris-Foulkes estimate   =    -139.51685189 Ry
     estimated scf accuracy    <       0.00001324 Ry

     iteration #  8     ecut=   100.00 Ry     beta=0.30
     Davidson diagonalization with overlap
     ethr =  5.52E-08,  avg # of iterations =  2.0

     total cpu time spent up to now is     3014.4 secs

     total energy              =    -139.51685161 Ry
     Harris-Foulkes estimate   =    -139.51685174 Ry
     estimated scf accuracy    <       0.00000026 Ry

     iteration #  9     ecut=   100.00 Ry     beta=0.30
     Davidson diagonalization with overlap
     ethr =  1.09E-09,  avg # of iterations =  2.0

     total cpu time spent up to now is     3023.4 secs

     total energy              =    -139.51685173 Ry
     Harris-Foulkes estimate   =    -139.51685169 Ry
     estimated scf accuracy    <       0.00000003 Ry

     iteration # 10     ecut=   100.00 Ry     beta=0.30
     Davidson diagonalization with overlap
     ethr =  1.16E-10,  avg # of iterations =  2.0

     total cpu time spent up to now is     3031.9 secs

     total energy              =    -139.51685170 Ry
     Harris-Foulkes estimate   =    -139.51685174 Ry
     estimated scf accuracy    <       0.00000008 Ry

     iteration # 11     ecut=   100.00 Ry     beta=0.30
     Davidson diagonalization with overlap
     ethr =  1.16E-10,  avg # of iterations =  2.9

     total cpu time spent up to now is     3040.7 secs

     End of self-consistent calculation

          k = 0.0745 0.1290 0.1062 (  2900 PWs)   bands (ev):

   -24.6819  -7.6921  -5.9342  -5.2137  -4.6246  -3.0739   9.1571   9.5224
    10.2334  11.9398  14.0005  14.5550

          k = 0.0745 0.1290 0.3185 (  2909 PWs)   bands (ev):

   -24.3212  -7.5847  -6.1122  -5.6499  -4.3140  -2.5292   6.5927   9.2067
     9.8532  10.5909  13.3588  14.3767

          k = 0.0745 0.1290 0.5308 (  2890 PWs)   bands (ev):

   -23.9227  -8.5881  -5.6988  -5.3546  -3.7017  -1.9377   4.1113   6.6482
    10.8982  11.8053  12.4002  13.5904

          k = 0.0745 0.3010 0.1062 (  2897 PWs)   bands (ev):

   -24.6194  -8.4346  -6.2158  -4.9511  -4.0714  -3.1663   9.4351  10.1436
    11.3159  11.4872  13.3745  14.6430

          k = 0.0745 0.3010 0.3185 (  2901 PWs)   bands (ev):

   -24.2676  -7.7570  -6.5120  -5.8208  -3.8557  -2.6141   6.7447   8.5866
     9.9310  11.6404  13.6437  14.6283

          k = 0.0745 0.3010 0.5308 (  2894 PWs)   bands (ev):

   -23.8800  -8.2337  -6.3656  -5.4716  -3.7981  -1.9225   4.4105   5.9731
    10.5227  11.9938  13.6916  14.1050

          k = 0.0745 0.4730 0.1062 (  2890 PWs)   bands (ev):

   -24.5730  -8.7995  -6.4431  -4.8214  -4.3375  -2.5554   9.5972  10.5319
    11.1344  11.6184  13.7308  14.5837

          k = 0.0745 0.4730 0.3185 (  2879 PWs)   bands (ev):

   -24.2278  -7.9784  -6.4902  -5.9681  -3.8993  -2.5254   7.2838   8.0646
    10.1869  11.8121  13.9765  14.5061

          k = 0.0745 0.4730 0.5308 (  2892 PWs)   bands (ev):

   -23.8485  -7.9199  -6.7633  -5.5672  -3.8465  -2.2156   4.9072   5.5876
    10.4532  12.5567  13.9067  14.0991

          k = 0.0745-0.3870 0.1062 (  2899 PWs)   bands (ev):

   -24.5901  -8.6895  -6.3465  -4.7363  -4.2931  -2.8923   9.7673  10.5475
    11.3169  11.4782  13.3534  14.3225

          k = 0.0745-0.3870 0.3185 (  2890 PWs)   bands (ev):

   -24.2424  -7.9652  -6.3664  -5.9436  -3.5809  -2.9904   7.3808   8.1995
    10.4426  11.8108  13.4794  13.9668

          k = 0.0745-0.3870 0.5308 (  2889 PWs)   bands (ev):

   -23.8600  -8.0694  -6.5887  -5.5322  -3.6577  -2.3516   4.9983   5.5610
    10.7614  12.2679  13.6252  13.8340

          k = 0.0745-0.2150 0.1062 (  2894 PWs)   bands (ev):

   -24.6530  -8.1064  -6.0546  -4.9150  -4.3174  -3.3272   9.4057  10.0540
    10.5293  11.8046  13.6074  14.3862

          k = 0.0745-0.2150 0.3185 (  2905 PWs)   bands (ev):

   -24.2964  -7.6968  -6.2851  -5.7363  -3.8539  -2.8511   6.7693   8.9264
    10.1707  10.9975  13.2460  14.2743

          k = 0.0745-0.2150 0.5308 (  2897 PWs)   bands (ev):

   -23.9030  -8.4407  -6.0260  -5.4089  -3.6260  -2.0499   4.3171   6.2870
    11.1081  11.5252  12.7861  13.9227

          k = 0.0745-0.0430 0.1062 (  2910 PWs)   bands (ev):

   -24.6984  -7.3397  -5.8765  -5.5725  -4.7391  -2.8869   8.9921   9.1945
    10.0884  12.0240  14.2589  14.6390

          k = 0.0745-0.0430 0.3185 (  2897 PWs)   bands (ev):

   -24.3354  -7.5417  -5.8732  -5.6086  -4.6721  -2.3612   6.5384   9.4075
     9.7020  10.2493  13.5470  14.2572

          k = 0.0745-0.0430 0.5308 (  2890 PWs)   bands (ev):

   -23.9340  -8.6696  -5.4669  -5.3268  -3.7655  -1.9226   4.0412   6.8805
    10.9178  11.7302  12.3791  13.2187

          k = 0.2234 0.3870 0.1062 (  2901 PWs)   bands (ev):

   -24.5732  -8.5207  -7.1911  -4.7223  -3.4068  -3.0541   9.0146  10.6809
    11.1407  12.3343  13.0530  14.9922

          k = 0.2234 0.3870 0.3185 (  2891 PWs)   bands (ev):

   -24.2279  -7.7657  -6.6307  -6.3299  -3.2620  -2.8494   7.3158   8.0754
     9.9699  12.2882  13.4683  14.5562

          k = 0.2234 0.3870 0.5308 (  2880 PWs)   bands (ev):

   -23.8485  -7.9402  -6.5487  -5.8940  -3.5122  -2.4800   5.0738   5.5206
    11.0388  12.1566  13.6519  13.8835

          k = 0.2234 0.5589 0.1062 (  2889 PWs)   bands (ev):

   -24.5606  -8.4274  -7.5507  -4.6997  -3.3402  -2.8550   8.8230  10.7478
    11.0209  12.5846  13.1157  15.1890

          k = 0.2234 0.5589 0.3185 (  2886 PWs)   bands (ev):

   -24.2172  -7.6642  -6.8958  -6.3443  -3.1484  -2.8366   7.6005   7.8383
     9.8108  12.6081  13.2835  14.6917

          k = 0.2234 0.5589 0.5308 (  2877 PWs)   bands (ev):

   -23.8400  -7.8492  -6.5418  -6.0739  -3.3471  -2.7242   5.3299   5.3627
    11.0784  12.5665  13.3905  13.7388

          k = 0.2234-0.3010 0.1062 (  2894 PWs)   bands (ev):

   -24.5947  -8.5361  -6.6933  -4.7914  -3.7243  -3.1474   9.2499  10.5285
    11.2637  11.8362  13.1667  14.7679

          k = 0.2234-0.3010 0.3185 (  2898 PWs)   bands (ev):

   -24.2464  -7.8022  -6.5105  -6.1103  -3.5634  -2.7320   6.9955   8.3400
    10.0472  11.8906  13.6851  14.4920

          k = 0.2234-0.3010 0.5308 (  2885 PWs)   bands (ev):

   -23.8632  -8.0820  -6.4959  -5.6605  -3.6892  -2.1663   4.7220   5.7373
    10.7939  11.9728  13.7634  14.0757

          k = 0.2234-0.1290 0.1062 (  2905 PWs)   bands (ev):

   -24.6408  -8.2521  -5.9806  -5.0973  -4.2191  -3.2083   9.4595   9.8083
    11.0456  11.5850  13.5092  14.6535

          k = 0.2234-0.1290 0.3185 (  2894 PWs)   bands (ev):

   -24.2859  -7.6815  -6.4746  -5.6936  -4.0030  -2.5695   6.6179   8.7877
     9.7961  11.4606  13.4819  14.7021

          k = 0.2234-0.1290 0.5308 (  2901 PWs)   bands (ev):

   -23.8946  -8.3596  -6.1860  -5.3918  -3.8060  -1.8308   4.2365   6.1801
    10.4623  11.9952  13.4542  13.9728

          k = 0.3724 0.6449 0.1062 (  2898 PWs)   bands (ev):

   -24.5652  -8.6600  -7.0491  -4.7149  -3.8463  -2.6478   9.1356  10.6940
    11.0950  12.0941  13.4049  14.9376

          k = 0.3724 0.6449 0.3185 (  2885 PWs)   bands (ev):

   -24.2211  -7.8625  -6.5761  -6.2794  -3.5072  -2.6672   7.5168   7.8921
    10.0223  12.1953  13.5895  14.6032

          k = 0.3724 0.6449 0.5308 (  2877 PWs)   bands (ev):

   -23.8431  -7.8757  -6.6833  -5.8176  -3.5998  -2.4773   5.1466   5.4675
    10.7919  12.5744  13.6384  13.8720

          k = 0.3724-0.2150 0.1062 (  2890 PWs)   bands (ev):

   -24.5821  -8.7951  -6.0832  -5.0385  -4.4403  -2.5969  10.0200  10.0794
    11.1438  11.5140  13.9059  14.3756

          k = 0.3724-0.2150 0.3185 (  2879 PWs)   bands (ev):

   -24.2356  -7.9730  -6.5124  -5.7802  -4.0694  -2.4605   7.0760   8.2071
    10.1519  11.6929  14.1672  14.5057

          k = 0.3724-0.2150 0.5308 (  2896 PWs)   bands (ev):

   -23.8547  -7.9778  -6.7403  -5.4578  -3.9437  -2.0547   4.7235   5.6838
    10.3103  12.4611  14.0290  14.2320

          k =-0.0745-0.3010 0.1062 (  2897 PWs)   bands (ev):

   -24.6194  -8.4523  -6.2046  -4.7939  -4.1411  -3.2836   9.6393  10.4164
    11.0191  11.6369  13.2770  14.2929

          k =-0.0745-0.3010 0.3185 (  2901 PWs)   bands (ev):

   -24.2676  -7.8456  -6.3471  -5.8452  -3.4163  -3.2151   7.0547   8.5797
    10.4161  11.4515  13.3118  14.0170

          k =-0.0745-0.3010 0.5308 (  2894 PWs)   bands (ev):

   -23.8800  -8.2545  -6.3406  -5.4737  -3.6027  -2.2250   4.6479   5.8978
    11.0345  11.7156  13.2340  13.9918

          k =-0.0745-0.4730 0.1062 (  2890 PWs)   bands (ev):

   -24.5730  -8.8057  -6.4369  -4.7474  -4.3886  -2.5956   9.7143  10.5692
    11.2493  11.5138  13.6269  14.4684

          k =-0.0745-0.4730 0.3185 (  2879 PWs)   bands (ev):

   -24.2278  -8.0125  -6.4137  -5.9876  -3.8049  -2.6917   7.5604   7.9260
    10.3286  11.8738  13.7206  14.2495

          k =-0.0745-0.4730 0.5308 (  2892 PWs)   bands (ev):

   -23.8485  -7.9375  -6.7417  -5.5676  -3.7643  -2.3434   5.1049   5.4561
    10.5598  12.6547  13.6956  13.9422

          k =-0.0745 0.3870 0.1062 (  2899 PWs)   bands (ev):

   -24.5901  -8.6739  -6.3601  -4.8931  -4.2025  -2.7887   9.5231  10.3775
    11.1654  11.6598  13.5632  14.6216

          k =-0.0745 0.3870 0.3185 (  2890 PWs)   bands (ev):

   -24.2424  -7.8805  -6.5409  -5.9071  -3.8878  -2.5156   6.9628   8.2980
    10.0527  11.7662  13.9738  14.6111

          k =-0.0745 0.3870 0.5308 (  2889 PWs)   bands (ev):

   -23.8601  -8.0379  -6.6277  -5.5309  -3.8549  -2.0451   4.6610   5.7378
    10.4432  12.2667  13.9749  14.1759

          k =-0.0745 0.2150 0.1062 (  2894 PWs)   bands (ev):

   -24.6530  -8.0950  -6.0583  -5.0221  -4.2473  -3.2809   9.2954   9.8854
    10.7645  11.7207  13.5529  14.6255

          k =-0.0745 0.2150 0.3185 (  2905 PWs)   bands (ev):

   -24.2964  -7.6518  -6.3661  -5.7271  -3.9741  -2.6514   6.6373   8.9151
     9.8490  11.2417  13.3448  14.5482

          k =-0.0745 0.2150 0.5308 (  2897 PWs)   bands (ev):

   -23.9030  -8.4335  -6.0330  -5.4069  -3.7248  -1.9000   4.2203   6.3020
    10.6810  11.8325  13.0875  13.8918

          k =-0.0745 0.0430 0.1062 (  2910 PWs)   bands (ev):

   -24.6984  -7.3445  -5.8783  -5.5487  -4.7538  -2.8922   9.0861   9.1289
    10.0654  12.0339  14.4022  14.4704

          k =-0.0745 0.0430 0.3185 (  2897 PWs)   bands (ev):

   -24.3354  -7.5486  -5.8553  -5.6126  -4.6664  -2.3826   6.5590   9.3856
     9.9441  10.0351  13.5533  14.2025

          k =-0.0745 0.0430 0.5308 (  2890 PWs)   bands (ev):

   -23.9340  -8.6704  -5.4659  -5.3290  -3.7471  -1.9478   4.0549   6.8806
    11.0642  11.6058  12.2833  13.2702

          k =-0.2234-0.5589 0.1062 (  2889 PWs)   bands (ev):

   -24.5606  -8.4250  -7.5535  -4.7024  -3.3511  -2.8382   8.8084  10.7751
    10.9833  12.5612  13.1544  15.2077

          k =-0.2234-0.5589 0.3185 (  2886 PWs)   bands (ev):

   -24.2172  -7.6501  -6.9207  -6.3363  -3.2065  -2.7679   7.5211   7.8954
     9.7991  12.5442  13.3689  14.7307

          k =-0.2234-0.5589 0.5308 (  2877 PWs)   bands (ev):

   -23.8400  -7.8461  -6.5474  -6.0722  -3.3765  -2.6878   5.2325   5.4504
    11.0502  12.5448  13.4822  13.7208

          k =-0.2234 0.3010 0.1062 (  2894 PWs)   bands (ev):

   -24.5947  -8.5445  -6.6832  -4.7542  -3.6914  -3.2364   9.3451  10.5562
    11.3872  11.7790  13.0490  14.6414

          k =-0.2234 0.3010 0.3185 (  2898 PWs)   bands (ev):

   -24.2464  -7.8465  -6.3775  -6.1774  -3.2797  -3.0876   7.1657   8.3088
    10.2004  11.9349  13.4603  14.2154

          k =-0.2234 0.3010 0.5308 (  2885 PWs)   bands (ev):

   -23.8632  -8.0947  -6.4791  -5.6611  -3.5944  -2.3094   4.8566   5.6724
    11.0288  11.8465  13.6197  13.9529

          k =-0.2234 0.1290 0.1062 (  2905 PWs)   bands (ev):

   -24.6408  -8.2740  -5.9841  -4.8430  -4.3802  -3.3151   9.6919  10.2481
    10.4861  11.7849  13.5970  14.1243

          k =-0.2234 0.1290 0.3185 (  2894 PWs)   bands (ev):

   -24.2858  -7.7803  -6.3084  -5.7013  -3.6778  -3.0744   6.9284   8.8075
    10.5398  10.9410  13.2060  14.0657

          k =-0.2234 0.1290 0.5308 (  2901 PWs)   bands (ev):

   -23.8946  -8.3779  -6.1664  -5.3961  -3.5864  -2.1669   4.4690   6.1314
    11.1621  11.5839  12.8035  13.9815

          k =-0.3724 0.2150 0.1062 (  2890 PWs)   bands (ev):

   -24.5821  -8.8077  -6.0849  -4.7931  -4.6265  -2.6785  10.2301  10.4072
    11.0391  11.4210  13.7556  14.0704

          k =-0.3724 0.2150 0.3185 (  2879 PWs)   bands (ev):

   -24.2356  -8.0419  -6.3872  -5.7839  -3.8793  -2.8087   7.5287   8.0507
    10.5288  11.7163  13.7472  13.8647

          k =-0.3724 0.2150 0.5308 (  2896 PWs)   bands (ev):

   -23.8547  -8.0112  -6.7002  -5.4599  -3.7740  -2.3232   5.0828   5.4718
    10.5358  12.6133  13.7493  13.7799

!    total energy              =    -139.51685171 Ry
     Harris-Foulkes estimate   =    -139.51685171 Ry
     estimated scf accuracy    <          1.7E-10 Ry

     The total energy is the sum of the following terms:

     one-electron contribution =      -2.34755605 Ry
     hartree contribution      =      19.79221100 Ry
     xc contribution           =     -26.94941025 Ry
     ewald contribution        =    -130.01209642 Ry

     convergence has been achieved in  11 iterations

     Forces acting on atoms (Ry/au):

     atom    1 type  3   force =     0.00000000    0.00000000    0.00005531
     atom    2 type  2   force =    -0.00000000   -0.00000000   -0.00001534
     atom    3 type  2   force =    -0.00000000   -0.00000000   -0.00000528
     atom    4 type  1   force =     0.00000000    0.00000000    0.00008750
     atom    5 type  1   force =    -0.00000000   -0.00000000   -0.00012219

     Total force =     0.000161     Total SCF correction =     0.000032
     SCF correction compared to forces is large: reduce conv_thr to get better values


     entering subroutine stress ...

          total   stress  (Ry/bohr**3)                   (kbar)     P= 1534.10
   0.01055997  -0.00000000  -0.00000000       1553.43     -0.00     -0.00
   0.00000000   0.01055997  -0.00000000          0.00   1553.43     -0.00
  -0.00000000  -0.00000000   0.01016582         -0.00     -0.00   1495.44


     Writing output data file CaOH2_ambient.save

     init_run     :     41.30s CPU     41.46s WALL (       2 calls)
     electrons    :   1629.92s CPU   1657.96s WALL (      18 calls)
     update_pot   :    615.42s CPU    617.62s WALL (      16 calls)
     forces       :    224.70s CPU    225.51s WALL (      18 calls)
     stress       :    498.80s CPU    499.79s WALL (      18 calls)

     Called by init_run:
     wfcinit      :      9.05s CPU      9.13s WALL (       2 calls)
     potinit      :     13.16s CPU     13.19s WALL (       2 calls)

     Called by electrons:
     c_bands      :   1400.05s CPU   1421.89s WALL (     154 calls)
     sum_band     :    204.54s CPU    209.45s WALL (     154 calls)
     v_of_rho     :     14.62s CPU     14.93s WALL (     170 calls)
     mix_rho      :     11.46s CPU     11.94s WALL (     154 calls)

     Called by c_bands:
     init_us_2    :     56.12s CPU     61.22s WALL (   21798 calls)
     cegterg      :   1368.73s CPU   1375.87s WALL (    9702 calls)

     Called by *egterg:
     h_psi        :   1006.88s CPU   1010.85s WALL (   32861 calls)
     g_psi        :     12.45s CPU     12.56s WALL (   23033 calls)
     cdiaghg      :     16.00s CPU     16.29s WALL (   31601 calls)

     Called by h_psi:
     add_vuspsi   :     32.92s CPU     33.03s WALL (   32861 calls)

     General routines
     calbec       :     36.77s CPU     36.94s WALL (   35129 calls)
     fft          :      3.69s CPU      3.70s WALL (    2016 calls)
     ffts         :      4.65s CPU      4.70s WALL (    2586 calls)
     fftw         :    966.32s CPU    970.03s WALL (  771166 calls)
     davcio       :      7.44s CPU     20.76s WALL (   31500 calls)


     PWSCF        : 50m13.24s CPU    50m45.59s WALL


   This run was terminated on:   3:23:18  22Apr2014            

=------------------------------------------------------------------------------=
   JOB DONE.
=------------------------------------------------------------------------------=
